V -t * -v 1.0a5 -a 0
A -t * -n 1 -p 0 -o 0x7fffffff -c 30 -a 1
A -t * -h 1 -m 1073741823 -s 0
c -t * -i 0 -n Blue
c -t * -i 1 -n Red
c -t * -i 2 -n Green
c -t * -i 3 -n Yellow
n -t * -a 4 -s 4 -S UP -v circle -c black -i black
n -t * -a 0 -s 0 -S UP -v circle -c black -i black
n -t * -a 5 -s 5 -S UP -v circle -c black -i black
n -t * -a 1 -s 1 -S UP -v circle -c black -i black
n -t * -a 6 -s 6 -S UP -v circle -c black -i black
n -t * -a 2 -s 2 -S UP -v circle -c black -i black
n -t * -a 3 -s 3 -S UP -v circle -c black -i black
l -t * -s 0 -d 1 -S UP -r 2000000 -D 0.01 -c black -o left-up
l -t * -s 0 -d 2 -S UP -r 2000000 -D 0.01 -c black -o right-up
l -t * -s 0 -d 3 -S UP -r 2000000 -D 0.01 -c black -o right
l -t * -s 0 -d 4 -S UP -r 2000000 -D 0.01 -c black -o right-down
l -t * -s 0 -d 5 -S UP -r 2000000 -D 0.01 -c black -o left-down
l -t * -s 0 -d 6 -S UP -r 2000000 -D 0.01 -c black -o left
+ -t 0.000169788487334637 -s 0 -d 1 -p rtProtoDV -e 7 -c 0 -i 0 -a 0 -x {0.1 1.2 -1 ------- null}
- -t 0.000169788487334637 -s 0 -d 1 -p rtProtoDV -e 7 -c 0 -i 0 -a 0 -x {0.1 1.2 -1 ------- null}
h -t 0.000169788487334637 -s 0 -d 1 -p rtProtoDV -e 7 -c 0 -i 0 -a 0 -x {0.1 1.2 -1 ------- null}
+ -t 0.000169788487334637 -s 0 -d 2 -p rtProtoDV -e 7 -c 0 -i 1 -a 0 -x {0.1 2.2 -1 ------- null}
- -t 0.000169788487334637 -s 0 -d 2 -p rtProtoDV -e 7 -c 0 -i 1 -a 0 -x {0.1 2.2 -1 ------- null}
h -t 0.000169788487334637 -s 0 -d 2 -p rtProtoDV -e 7 -c 0 -i 1 -a 0 -x {0.1 2.2 -1 ------- null}
+ -t 0.000169788487334637 -s 0 -d 3 -p rtProtoDV -e 7 -c 0 -i 2 -a 0 -x {0.1 3.1 -1 ------- null}
- -t 0.000169788487334637 -s 0 -d 3 -p rtProtoDV -e 7 -c 0 -i 2 -a 0 -x {0.1 3.1 -1 ------- null}
h -t 0.000169788487334637 -s 0 -d 3 -p rtProtoDV -e 7 -c 0 -i 2 -a 0 -x {0.1 3.1 -1 ------- null}
+ -t 0.000169788487334637 -s 0 -d 4 -p rtProtoDV -e 7 -c 0 -i 3 -a 0 -x {0.1 4.2 -1 ------- null}
- -t 0.000169788487334637 -s 0 -d 4 -p rtProtoDV -e 7 -c 0 -i 3 -a 0 -x {0.1 4.2 -1 ------- null}
h -t 0.000169788487334637 -s 0 -d 4 -p rtProtoDV -e 7 -c 0 -i 3 -a 0 -x {0.1 4.2 -1 ------- null}
+ -t 0.000169788487334637 -s 0 -d 5 -p rtProtoDV -e 7 -c 0 -i 4 -a 0 -x {0.1 5.2 -1 ------- null}
- -t 0.000169788487334637 -s 0 -d 5 -p rtProtoDV -e 7 -c 0 -i 4 -a 0 -x {0.1 5.2 -1 ------- null}
h -t 0.000169788487334637 -s 0 -d 5 -p rtProtoDV -e 7 -c 0 -i 4 -a 0 -x {0.1 5.2 -1 ------- null}
+ -t 0.000169788487334637 -s 0 -d 6 -p rtProtoDV -e 7 -c 0 -i 5 -a 0 -x {0.1 6.1 -1 ------- null}
- -t 0.000169788487334637 -s 0 -d 6 -p rtProtoDV -e 7 -c 0 -i 5 -a 0 -x {0.1 6.1 -1 ------- null}
h -t 0.000169788487334637 -s 0 -d 6 -p rtProtoDV -e 7 -c 0 -i 5 -a 0 -x {0.1 6.1 -1 ------- null}
+ -t 0.00710233021858257 -s 2 -d 0 -p rtProtoDV -e 7 -c 0 -i 6 -a 0 -x {2.2 0.1 -1 ------- null}
- -t 0.00710233021858257 -s 2 -d 0 -p rtProtoDV -e 7 -c 0 -i 6 -a 0 -x {2.2 0.1 -1 ------- null}
h -t 0.00710233021858257 -s 2 -d 0 -p rtProtoDV -e 7 -c 0 -i 6 -a 0 -x {2.2 0.1 -1 ------- null}
r -t 0.0101977884873346 -s 0 -d 1 -p rtProtoDV -e 7 -c 0 -i 0 -a 0 -x {0.1 1.2 -1 ------- null}
+ -t 0.0101977884873346 -s 1 -d 0 -p rtProtoDV -e 7 -c 0 -i 7 -a 0 -x {1.2 0.1 -1 ------- null}
- -t 0.0101977884873346 -s 1 -d 0 -p rtProtoDV -e 7 -c 0 -i 7 -a 0 -x {1.2 0.1 -1 ------- null}
h -t 0.0101977884873346 -s 1 -d 0 -p rtProtoDV -e 7 -c 0 -i 7 -a 0 -x {1.2 0.1 -1 ------- null}
r -t 0.0101977884873346 -s 0 -d 2 -p rtProtoDV -e 7 -c 0 -i 1 -a 0 -x {0.1 2.2 -1 ------- null}
+ -t 0.0101977884873346 -s 2 -d 0 -p rtProtoDV -e 7 -c 0 -i 8 -a 0 -x {2.2 0.1 -1 ------- null}
- -t 0.0101977884873346 -s 2 -d 0 -p rtProtoDV -e 7 -c 0 -i 8 -a 0 -x {2.2 0.1 -1 ------- null}
h -t 0.0101977884873346 -s 2 -d 0 -p rtProtoDV -e 7 -c 0 -i 8 -a 0 -x {2.2 0.1 -1 ------- null}
r -t 0.0101977884873346 -s 0 -d 3 -p rtProtoDV -e 7 -c 0 -i 2 -a 0 -x {0.1 3.1 -1 ------- null}
+ -t 0.0101977884873346 -s 3 -d 0 -p rtProtoDV -e 7 -c 0 -i 9 -a 0 -x {3.1 0.1 -1 ------- null}
- -t 0.0101977884873346 -s 3 -d 0 -p rtProtoDV -e 7 -c 0 -i 9 -a 0 -x {3.1 0.1 -1 ------- null}
h -t 0.0101977884873346 -s 3 -d 0 -p rtProtoDV -e 7 -c 0 -i 9 -a 0 -x {3.1 0.1 -1 ------- null}
r -t 0.0101977884873346 -s 0 -d 4 -p rtProtoDV -e 7 -c 0 -i 3 -a 0 -x {0.1 4.2 -1 ------- null}
+ -t 0.0101977884873346 -s 4 -d 0 -p rtProtoDV -e 7 -c 0 -i 10 -a 0 -x {4.2 0.1 -1 ------- null}
- -t 0.0101977884873346 -s 4 -d 0 -p rtProtoDV -e 7 -c 0 -i 10 -a 0 -x {4.2 0.1 -1 ------- null}
h -t 0.0101977884873346 -s 4 -d 0 -p rtProtoDV -e 7 -c 0 -i 10 -a 0 -x {4.2 0.1 -1 ------- null}
r -t 0.0101977884873346 -s 0 -d 5 -p rtProtoDV -e 7 -c 0 -i 4 -a 0 -x {0.1 5.2 -1 ------- null}
+ -t 0.0101977884873346 -s 5 -d 0 -p rtProtoDV -e 7 -c 0 -i 11 -a 0 -x {5.2 0.1 -1 ------- null}
- -t 0.0101977884873346 -s 5 -d 0 -p rtProtoDV -e 7 -c 0 -i 11 -a 0 -x {5.2 0.1 -1 ------- null}
h -t 0.0101977884873346 -s 5 -d 0 -p rtProtoDV -e 7 -c 0 -i 11 -a 0 -x {5.2 0.1 -1 ------- null}
r -t 0.0101977884873346 -s 0 -d 6 -p rtProtoDV -e 7 -c 0 -i 5 -a 0 -x {0.1 6.1 -1 ------- null}
+ -t 0.0101977884873346 -s 6 -d 0 -p rtProtoDV -e 7 -c 0 -i 12 -a 0 -x {6.1 0.1 -1 ------- null}
- -t 0.0101977884873346 -s 6 -d 0 -p rtProtoDV -e 7 -c 0 -i 12 -a 0 -x {6.1 0.1 -1 ------- null}
h -t 0.0101977884873346 -s 6 -d 0 -p rtProtoDV -e 7 -c 0 -i 12 -a 0 -x {6.1 0.1 -1 ------- null}
r -t 0.0171303302185826 -s 2 -d 0 -p rtProtoDV -e 7 -c 0 -i 6 -a 0 -x {2.2 0.1 -1 ------- null}
r -t 0.0202257884873346 -s 1 -d 0 -p rtProtoDV -e 7 -c 0 -i 7 -a 0 -x {1.2 0.1 -1 ------- null}
r -t 0.0202257884873346 -s 2 -d 0 -p rtProtoDV -e 7 -c 0 -i 8 -a 0 -x {2.2 0.1 -1 ------- null}
r -t 0.0202257884873346 -s 3 -d 0 -p rtProtoDV -e 7 -c 0 -i 9 -a 0 -x {3.1 0.1 -1 ------- null}
r -t 0.0202257884873346 -s 4 -d 0 -p rtProtoDV -e 7 -c 0 -i 10 -a 0 -x {4.2 0.1 -1 ------- null}
r -t 0.0202257884873346 -s 5 -d 0 -p rtProtoDV -e 7 -c 0 -i 11 -a 0 -x {5.2 0.1 -1 ------- null}
r -t 0.0202257884873346 -s 6 -d 0 -p rtProtoDV -e 7 -c 0 -i 12 -a 0 -x {6.1 0.1 -1 ------- null}
+ -t 0.04406133552271 -s 3 -d 0 -p rtProtoDV -e 7 -c 0 -i 13 -a 0 -x {3.1 0.1 -1 ------- null}
- -t 0.04406133552271 -s 3 -d 0 -p rtProtoDV -e 7 -c 0 -i 13 -a 0 -x {3.1 0.1 -1 ------- null}
h -t 0.04406133552271 -s 3 -d 0 -p rtProtoDV -e 7 -c 0 -i 13 -a 0 -x {3.1 0.1 -1 ------- null}
r -t 0.05408933552271 -s 3 -d 0 -p rtProtoDV -e 7 -c 0 -i 13 -a 0 -x {3.1 0.1 -1 ------- null}
+ -t 0.1 -s 1 -d 0 -p tcp -e 40 -c 1 -i 14 -a 1 -x {1.0 4.0 0 ------- null}
- -t 0.1 -s 1 -d 0 -p tcp -e 40 -c 1 -i 14 -a 1 -x {1.0 4.0 0 ------- null}
h -t 0.1 -s 1 -d 0 -p tcp -e 40 -c 1 -i 14 -a 1 -x {1.0 4.0 -1 ------- null}
r -t 0.11016 -s 1 -d 0 -p tcp -e 40 -c 1 -i 14 -a 1 -x {1.0 4.0 0 ------- null}
+ -t 0.11016 -s 0 -d 4 -p tcp -e 40 -c 1 -i 14 -a 1 -x {1.0 4.0 0 ------- null}
- -t 0.11016 -s 0 -d 4 -p tcp -e 40 -c 1 -i 14 -a 1 -x {1.0 4.0 0 ------- null}
h -t 0.11016 -s 0 -d 4 -p tcp -e 40 -c 1 -i 14 -a 1 -x {1.0 4.0 -1 ------- null}
r -t 0.12032 -s 0 -d 4 -p tcp -e 40 -c 1 -i 14 -a 1 -x {1.0 4.0 0 ------- null}
+ -t 0.12032 -s 4 -d 0 -p ack -e 40 -c 1 -i 15 -a 1 -x {4.0 1.0 0 ------- null}
- -t 0.12032 -s 4 -d 0 -p ack -e 40 -c 1 -i 15 -a 1 -x {4.0 1.0 0 ------- null}
h -t 0.12032 -s 4 -d 0 -p ack -e 40 -c 1 -i 15 -a 1 -x {4.0 1.0 -1 ------- null}
r -t 0.13048 -s 4 -d 0 -p ack -e 40 -c 1 -i 15 -a 1 -x {4.0 1.0 0 ------- null}
+ -t 0.13048 -s 0 -d 1 -p ack -e 40 -c 1 -i 15 -a 1 -x {4.0 1.0 0 ------- null}
- -t 0.13048 -s 0 -d 1 -p ack -e 40 -c 1 -i 15 -a 1 -x {4.0 1.0 0 ------- null}
h -t 0.13048 -s 0 -d 1 -p ack -e 40 -c 1 -i 15 -a 1 -x {4.0 1.0 -1 ------- null}
r -t 0.14064 -s 0 -d 1 -p ack -e 40 -c 1 -i 15 -a 1 -x {4.0 1.0 0 ------- null}
+ -t 0.14064 -s 1 -d 0 -p tcp -e 1040 -c 1 -i 16 -a 1 -x {1.0 4.0 1 ------- null}
- -t 0.14064 -s 1 -d 0 -p tcp -e 1040 -c 1 -i 16 -a 1 -x {1.0 4.0 1 ------- null}
h -t 0.14064 -s 1 -d 0 -p tcp -e 1040 -c 1 -i 16 -a 1 -x {1.0 4.0 -1 ------- null}
+ -t 0.14064 -s 1 -d 0 -p tcp -e 1040 -c 1 -i 17 -a 1 -x {1.0 4.0 2 ------- null}
- -t 0.1448 -s 1 -d 0 -p tcp -e 1040 -c 1 -i 17 -a 1 -x {1.0 4.0 2 ------- null}
h -t 0.1448 -s 1 -d 0 -p tcp -e 1040 -c 1 -i 17 -a 1 -x {1.0 4.0 -1 ------- null}
r -t 0.1548 -s 1 -d 0 -p tcp -e 1040 -c 1 -i 16 -a 1 -x {1.0 4.0 1 ------- null}
+ -t 0.1548 -s 0 -d 4 -p tcp -e 1040 -c 1 -i 16 -a 1 -x {1.0 4.0 1 ------- null}
- -t 0.1548 -s 0 -d 4 -p tcp -e 1040 -c 1 -i 16 -a 1 -x {1.0 4.0 1 ------- null}
h -t 0.1548 -s 0 -d 4 -p tcp -e 1040 -c 1 -i 16 -a 1 -x {1.0 4.0 -1 ------- null}
+ -t 0.156480885882155 -s 6 -d 0 -p rtProtoDV -e 7 -c 0 -i 18 -a 0 -x {6.1 0.1 -1 ------- null}
- -t 0.156480885882155 -s 6 -d 0 -p rtProtoDV -e 7 -c 0 -i 18 -a 0 -x {6.1 0.1 -1 ------- null}
h -t 0.156480885882155 -s 6 -d 0 -p rtProtoDV -e 7 -c 0 -i 18 -a 0 -x {6.1 0.1 -1 ------- null}
r -t 0.15896 -s 1 -d 0 -p tcp -e 1040 -c 1 -i 17 -a 1 -x {1.0 4.0 2 ------- null}
+ -t 0.15896 -s 0 -d 4 -p tcp -e 1040 -c 1 -i 17 -a 1 -x {1.0 4.0 2 ------- null}
- -t 0.15896 -s 0 -d 4 -p tcp -e 1040 -c 1 -i 17 -a 1 -x {1.0 4.0 2 ------- null}
h -t 0.15896 -s 0 -d 4 -p tcp -e 1040 -c 1 -i 17 -a 1 -x {1.0 4.0 -1 ------- null}
r -t 0.166508885882155 -s 6 -d 0 -p rtProtoDV -e 7 -c 0 -i 18 -a 0 -x {6.1 0.1 -1 ------- null}
r -t 0.16896 -s 0 -d 4 -p tcp -e 1040 -c 1 -i 16 -a 1 -x {1.0 4.0 1 ------- null}
+ -t 0.16896 -s 4 -d 0 -p ack -e 40 -c 1 -i 19 -a 1 -x {4.0 1.0 1 ------- null}
- -t 0.16896 -s 4 -d 0 -p ack -e 40 -c 1 -i 19 -a 1 -x {4.0 1.0 1 ------- null}
h -t 0.16896 -s 4 -d 0 -p ack -e 40 -c 1 -i 19 -a 1 -x {4.0 1.0 -1 ------- null}
r -t 0.17312 -s 0 -d 4 -p tcp -e 1040 -c 1 -i 17 -a 1 -x {1.0 4.0 2 ------- null}
+ -t 0.17312 -s 4 -d 0 -p ack -e 40 -c 1 -i 20 -a 1 -x {4.0 1.0 2 ------- null}
- -t 0.17312 -s 4 -d 0 -p ack -e 40 -c 1 -i 20 -a 1 -x {4.0 1.0 2 ------- null}
h -t 0.17312 -s 4 -d 0 -p ack -e 40 -c 1 -i 20 -a 1 -x {4.0 1.0 -1 ------- null}
r -t 0.17912 -s 4 -d 0 -p ack -e 40 -c 1 -i 19 -a 1 -x {4.0 1.0 1 ------- null}
+ -t 0.17912 -s 0 -d 1 -p ack -e 40 -c 1 -i 19 -a 1 -x {4.0 1.0 1 ------- null}
- -t 0.17912 -s 0 -d 1 -p ack -e 40 -c 1 -i 19 -a 1 -x {4.0 1.0 1 ------- null}
h -t 0.17912 -s 0 -d 1 -p ack -e 40 -c 1 -i 19 -a 1 -x {4.0 1.0 -1 ------- null}
r -t 0.18328 -s 4 -d 0 -p ack -e 40 -c 1 -i 20 -a 1 -x {4.0 1.0 2 ------- null}
+ -t 0.18328 -s 0 -d 1 -p ack -e 40 -c 1 -i 20 -a 1 -x {4.0 1.0 2 ------- null}
- -t 0.18328 -s 0 -d 1 -p ack -e 40 -c 1 -i 20 -a 1 -x {4.0 1.0 2 ------- null}
h -t 0.18328 -s 0 -d 1 -p ack -e 40 -c 1 -i 20 -a 1 -x {4.0 1.0 -1 ------- null}
r -t 0.18928 -s 0 -d 1 -p ack -e 40 -c 1 -i 19 -a 1 -x {4.0 1.0 1 ------- null}
+ -t 0.18928 -s 1 -d 0 -p tcp -e 1040 -c 1 -i 21 -a 1 -x {1.0 4.0 3 ------- null}
- -t 0.18928 -s 1 -d 0 -p tcp -e 1040 -c 1 -i 21 -a 1 -x {1.0 4.0 3 ------- null}
h -t 0.18928 -s 1 -d 0 -p tcp -e 1040 -c 1 -i 21 -a 1 -x {1.0 4.0 -1 ------- null}
+ -t 0.18928 -s 1 -d 0 -p tcp -e 1040 -c 1 -i 22 -a 1 -x {1.0 4.0 4 ------- null}
r -t 0.19344 -s 0 -d 1 -p ack -e 40 -c 1 -i 20 -a 1 -x {4.0 1.0 2 ------- null}
+ -t 0.19344 -s 1 -d 0 -p tcp -e 1040 -c 1 -i 23 -a 1 -x {1.0 4.0 5 ------- null}
+ -t 0.19344 -s 1 -d 0 -p tcp -e 1040 -c 1 -i 24 -a 1 -x {1.0 4.0 6 ------- null}
- -t 0.19344 -s 1 -d 0 -p tcp -e 1040 -c 1 -i 22 -a 1 -x {1.0 4.0 4 ------- null}
h -t 0.19344 -s 1 -d 0 -p tcp -e 1040 -c 1 -i 22 -a 1 -x {1.0 4.0 -1 ------- null}
- -t 0.1976 -s 1 -d 0 -p tcp -e 1040 -c 1 -i 23 -a 1 -x {1.0 4.0 5 ------- null}
h -t 0.1976 -s 1 -d 0 -p tcp -e 1040 -c 1 -i 23 -a 1 -x {1.0 4.0 -1 ------- null}
+ -t 0.2 -s 2 -d 0 -p cbr -e 210 -c 2 -i 25 -a 2 -x {2.0 5.0 0 ------- null}
- -t 0.2 -s 2 -d 0 -p cbr -e 210 -c 2 -i 25 -a 2 -x {2.0 5.0 0 ------- null}
h -t 0.2 -s 2 -d 0 -p cbr -e 210 -c 2 -i 25 -a 2 -x {2.0 5.0 -1 ------- null}
- -t 0.20176 -s 1 -d 0 -p tcp -e 1040 -c 1 -i 24 -a 1 -x {1.0 4.0 6 ------- null}
h -t 0.20176 -s 1 -d 0 -p tcp -e 1040 -c 1 -i 24 -a 1 -x {1.0 4.0 -1 ------- null}
r -t 0.20344 -s 1 -d 0 -p tcp -e 1040 -c 1 -i 21 -a 1 -x {1.0 4.0 3 ------- null}
+ -t 0.20344 -s 0 -d 4 -p tcp -e 1040 -c 1 -i 21 -a 1 -x {1.0 4.0 3 ------- null}
- -t 0.20344 -s 0 -d 4 -p tcp -e 1040 -c 1 -i 21 -a 1 -x {1.0 4.0 3 ------- null}
h -t 0.20344 -s 0 -d 4 -p tcp -e 1040 -c 1 -i 21 -a 1 -x {1.0 4.0 -1 ------- null}
+ -t 0.20672 -s 2 -d 0 -p cbr -e 210 -c 2 -i 26 -a 2 -x {2.0 5.0 1 ------- null}
- -t 0.20672 -s 2 -d 0 -p cbr -e 210 -c 2 -i 26 -a 2 -x {2.0 5.0 1 ------- null}
h -t 0.20672 -s 2 -d 0 -p cbr -e 210 -c 2 -i 26 -a 2 -x {2.0 5.0 -1 ------- null}
r -t 0.2076 -s 1 -d 0 -p tcp -e 1040 -c 1 -i 22 -a 1 -x {1.0 4.0 4 ------- null}
+ -t 0.2076 -s 0 -d 4 -p tcp -e 1040 -c 1 -i 22 -a 1 -x {1.0 4.0 4 ------- null}
- -t 0.2076 -s 0 -d 4 -p tcp -e 1040 -c 1 -i 22 -a 1 -x {1.0 4.0 4 ------- null}
h -t 0.2076 -s 0 -d 4 -p tcp -e 1040 -c 1 -i 22 -a 1 -x {1.0 4.0 -1 ------- null}
r -t 0.21084 -s 2 -d 0 -p cbr -e 210 -c 2 -i 25 -a 2 -x {2.0 5.0 0 ------- null}
+ -t 0.21084 -s 0 -d 5 -p cbr -e 210 -c 2 -i 25 -a 2 -x {2.0 5.0 0 ------- null}
- -t 0.21084 -s 0 -d 5 -p cbr -e 210 -c 2 -i 25 -a 2 -x {2.0 5.0 0 ------- null}
h -t 0.21084 -s 0 -d 5 -p cbr -e 210 -c 2 -i 25 -a 2 -x {2.0 5.0 -1 ------- null}
r -t 0.21176 -s 1 -d 0 -p tcp -e 1040 -c 1 -i 23 -a 1 -x {1.0 4.0 5 ------- null}
+ -t 0.21176 -s 0 -d 4 -p tcp -e 1040 -c 1 -i 23 -a 1 -x {1.0 4.0 5 ------- null}
- -t 0.21176 -s 0 -d 4 -p tcp -e 1040 -c 1 -i 23 -a 1 -x {1.0 4.0 5 ------- null}
h -t 0.21176 -s 0 -d 4 -p tcp -e 1040 -c 1 -i 23 -a 1 -x {1.0 4.0 -1 ------- null}
+ -t 0.21344 -s 2 -d 0 -p cbr -e 210 -c 2 -i 27 -a 2 -x {2.0 5.0 2 ------- null}
- -t 0.21344 -s 2 -d 0 -p cbr -e 210 -c 2 -i 27 -a 2 -x {2.0 5.0 2 ------- null}
h -t 0.21344 -s 2 -d 0 -p cbr -e 210 -c 2 -i 27 -a 2 -x {2.0 5.0 -1 ------- null}
r -t 0.21592 -s 1 -d 0 -p tcp -e 1040 -c 1 -i 24 -a 1 -x {1.0 4.0 6 ------- null}
+ -t 0.21592 -s 0 -d 4 -p tcp -e 1040 -c 1 -i 24 -a 1 -x {1.0 4.0 6 ------- null}
- -t 0.21592 -s 0 -d 4 -p tcp -e 1040 -c 1 -i 24 -a 1 -x {1.0 4.0 6 ------- null}
h -t 0.21592 -s 0 -d 4 -p tcp -e 1040 -c 1 -i 24 -a 1 -x {1.0 4.0 -1 ------- null}
r -t 0.21756 -s 2 -d 0 -p cbr -e 210 -c 2 -i 26 -a 2 -x {2.0 5.0 1 ------- null}
+ -t 0.21756 -s 0 -d 5 -p cbr -e 210 -c 2 -i 26 -a 2 -x {2.0 5.0 1 ------- null}
- -t 0.21756 -s 0 -d 5 -p cbr -e 210 -c 2 -i 26 -a 2 -x {2.0 5.0 1 ------- null}
h -t 0.21756 -s 0 -d 5 -p cbr -e 210 -c 2 -i 26 -a 2 -x {2.0 5.0 -1 ------- null}
r -t 0.2176 -s 0 -d 4 -p tcp -e 1040 -c 1 -i 21 -a 1 -x {1.0 4.0 3 ------- null}
+ -t 0.2176 -s 4 -d 0 -p ack -e 40 -c 1 -i 28 -a 1 -x {4.0 1.0 3 ------- null}
- -t 0.2176 -s 4 -d 0 -p ack -e 40 -c 1 -i 28 -a 1 -x {4.0 1.0 3 ------- null}
h -t 0.2176 -s 4 -d 0 -p ack -e 40 -c 1 -i 28 -a 1 -x {4.0 1.0 -1 ------- null}
+ -t 0.22016 -s 2 -d 0 -p cbr -e 210 -c 2 -i 29 -a 2 -x {2.0 5.0 3 ------- null}
- -t 0.22016 -s 2 -d 0 -p cbr -e 210 -c 2 -i 29 -a 2 -x {2.0 5.0 3 ------- null}
h -t 0.22016 -s 2 -d 0 -p cbr -e 210 -c 2 -i 29 -a 2 -x {2.0 5.0 -1 ------- null}
+ -t 0.22058669092161 -s 4 -d 0 -p rtProtoDV -e 7 -c 0 -i 30 -a 0 -x {4.2 0.1 -1 ------- null}
- -t 0.22058669092161 -s 4 -d 0 -p rtProtoDV -e 7 -c 0 -i 30 -a 0 -x {4.2 0.1 -1 ------- null}
h -t 0.22058669092161 -s 4 -d 0 -p rtProtoDV -e 7 -c 0 -i 30 -a 0 -x {4.2 0.1 -1 ------- null}
r -t 0.22168 -s 0 -d 5 -p cbr -e 210 -c 2 -i 25 -a 2 -x {2.0 5.0 0 ------- null}
r -t 0.22176 -s 0 -d 4 -p tcp -e 1040 -c 1 -i 22 -a 1 -x {1.0 4.0 4 ------- null}
+ -t 0.22176 -s 4 -d 0 -p ack -e 40 -c 1 -i 31 -a 1 -x {4.0 1.0 4 ------- null}
- -t 0.22176 -s 4 -d 0 -p ack -e 40 -c 1 -i 31 -a 1 -x {4.0 1.0 4 ------- null}
h -t 0.22176 -s 4 -d 0 -p ack -e 40 -c 1 -i 31 -a 1 -x {4.0 1.0 -1 ------- null}
r -t 0.22428 -s 2 -d 0 -p cbr -e 210 -c 2 -i 27 -a 2 -x {2.0 5.0 2 ------- null}
+ -t 0.22428 -s 0 -d 5 -p cbr -e 210 -c 2 -i 27 -a 2 -x {2.0 5.0 2 ------- null}
- -t 0.22428 -s 0 -d 5 -p cbr -e 210 -c 2 -i 27 -a 2 -x {2.0 5.0 2 ------- null}
h -t 0.22428 -s 0 -d 5 -p cbr -e 210 -c 2 -i 27 -a 2 -x {2.0 5.0 -1 ------- null}
r -t 0.22592 -s 0 -d 4 -p tcp -e 1040 -c 1 -i 23 -a 1 -x {1.0 4.0 5 ------- null}
+ -t 0.22592 -s 4 -d 0 -p ack -e 40 -c 1 -i 32 -a 1 -x {4.0 1.0 5 ------- null}
- -t 0.22592 -s 4 -d 0 -p ack -e 40 -c 1 -i 32 -a 1 -x {4.0 1.0 5 ------- null}
h -t 0.22592 -s 4 -d 0 -p ack -e 40 -c 1 -i 32 -a 1 -x {4.0 1.0 -1 ------- null}
+ -t 0.22688 -s 2 -d 0 -p cbr -e 210 -c 2 -i 33 -a 2 -x {2.0 5.0 4 ------- null}
- -t 0.22688 -s 2 -d 0 -p cbr -e 210 -c 2 -i 33 -a 2 -x {2.0 5.0 4 ------- null}
h -t 0.22688 -s 2 -d 0 -p cbr -e 210 -c 2 -i 33 -a 2 -x {2.0 5.0 -1 ------- null}
r -t 0.22776 -s 4 -d 0 -p ack -e 40 -c 1 -i 28 -a 1 -x {4.0 1.0 3 ------- null}
+ -t 0.22776 -s 0 -d 1 -p ack -e 40 -c 1 -i 28 -a 1 -x {4.0 1.0 3 ------- null}
- -t 0.22776 -s 0 -d 1 -p ack -e 40 -c 1 -i 28 -a 1 -x {4.0 1.0 3 ------- null}
h -t 0.22776 -s 0 -d 1 -p ack -e 40 -c 1 -i 28 -a 1 -x {4.0 1.0 -1 ------- null}
r -t 0.2284 -s 0 -d 5 -p cbr -e 210 -c 2 -i 26 -a 2 -x {2.0 5.0 1 ------- null}
r -t 0.23008 -s 0 -d 4 -p tcp -e 1040 -c 1 -i 24 -a 1 -x {1.0 4.0 6 ------- null}
+ -t 0.23008 -s 4 -d 0 -p ack -e 40 -c 1 -i 34 -a 1 -x {4.0 1.0 6 ------- null}
- -t 0.23008 -s 4 -d 0 -p ack -e 40 -c 1 -i 34 -a 1 -x {4.0 1.0 6 ------- null}
h -t 0.23008 -s 4 -d 0 -p ack -e 40 -c 1 -i 34 -a 1 -x {4.0 1.0 -1 ------- null}
r -t 0.23061469092161 -s 4 -d 0 -p rtProtoDV -e 7 -c 0 -i 30 -a 0 -x {4.2 0.1 -1 ------- null}
r -t 0.231 -s 2 -d 0 -p cbr -e 210 -c 2 -i 29 -a 2 -x {2.0 5.0 3 ------- null}
+ -t 0.231 -s 0 -d 5 -p cbr -e 210 -c 2 -i 29 -a 2 -x {2.0 5.0 3 ------- null}
- -t 0.231 -s 0 -d 5 -p cbr -e 210 -c 2 -i 29 -a 2 -x {2.0 5.0 3 ------- null}
h -t 0.231 -s 0 -d 5 -p cbr -e 210 -c 2 -i 29 -a 2 -x {2.0 5.0 -1 ------- null}
r -t 0.23192 -s 4 -d 0 -p ack -e 40 -c 1 -i 31 -a 1 -x {4.0 1.0 4 ------- null}
+ -t 0.23192 -s 0 -d 1 -p ack -e 40 -c 1 -i 31 -a 1 -x {4.0 1.0 4 ------- null}
- -t 0.23192 -s 0 -d 1 -p ack -e 40 -c 1 -i 31 -a 1 -x {4.0 1.0 4 ------- null}
h -t 0.23192 -s 0 -d 1 -p ack -e 40 -c 1 -i 31 -a 1 -x {4.0 1.0 -1 ------- null}
+ -t 0.2336 -s 2 -d 0 -p cbr -e 210 -c 2 -i 35 -a 2 -x {2.0 5.0 5 ------- null}
- -t 0.2336 -s 2 -d 0 -p cbr -e 210 -c 2 -i 35 -a 2 -x {2.0 5.0 5 ------- null}
h -t 0.2336 -s 2 -d 0 -p cbr -e 210 -c 2 -i 35 -a 2 -x {2.0 5.0 -1 ------- null}
r -t 0.23512 -s 0 -d 5 -p cbr -e 210 -c 2 -i 27 -a 2 -x {2.0 5.0 2 ------- null}
r -t 0.23608 -s 4 -d 0 -p ack -e 40 -c 1 -i 32 -a 1 -x {4.0 1.0 5 ------- null}
+ -t 0.23608 -s 0 -d 1 -p ack -e 40 -c 1 -i 32 -a 1 -x {4.0 1.0 5 ------- null}
- -t 0.23608 -s 0 -d 1 -p ack -e 40 -c 1 -i 32 -a 1 -x {4.0 1.0 5 ------- null}
h -t 0.23608 -s 0 -d 1 -p ack -e 40 -c 1 -i 32 -a 1 -x {4.0 1.0 -1 ------- null}
r -t 0.23772 -s 2 -d 0 -p cbr -e 210 -c 2 -i 33 -a 2 -x {2.0 5.0 4 ------- null}
+ -t 0.23772 -s 0 -d 5 -p cbr -e 210 -c 2 -i 33 -a 2 -x {2.0 5.0 4 ------- null}
- -t 0.23772 -s 0 -d 5 -p cbr -e 210 -c 2 -i 33 -a 2 -x {2.0 5.0 4 ------- null}
h -t 0.23772 -s 0 -d 5 -p cbr -e 210 -c 2 -i 33 -a 2 -x {2.0 5.0 -1 ------- null}
r -t 0.23792 -s 0 -d 1 -p ack -e 40 -c 1 -i 28 -a 1 -x {4.0 1.0 3 ------- null}
+ -t 0.23792 -s 1 -d 0 -p tcp -e 1040 -c 1 -i 36 -a 1 -x {1.0 4.0 7 ------- null}
- -t 0.23792 -s 1 -d 0 -p tcp -e 1040 -c 1 -i 36 -a 1 -x {1.0 4.0 7 ------- null}
h -t 0.23792 -s 1 -d 0 -p tcp -e 1040 -c 1 -i 36 -a 1 -x {1.0 4.0 -1 ------- null}
+ -t 0.23792 -s 1 -d 0 -p tcp -e 1040 -c 1 -i 37 -a 1 -x {1.0 4.0 8 ------- null}
r -t 0.24024 -s 4 -d 0 -p ack -e 40 -c 1 -i 34 -a 1 -x {4.0 1.0 6 ------- null}
+ -t 0.24024 -s 0 -d 1 -p ack -e 40 -c 1 -i 34 -a 1 -x {4.0 1.0 6 ------- null}
- -t 0.24024 -s 0 -d 1 -p ack -e 40 -c 1 -i 34 -a 1 -x {4.0 1.0 6 ------- null}
h -t 0.24024 -s 0 -d 1 -p ack -e 40 -c 1 -i 34 -a 1 -x {4.0 1.0 -1 ------- null}
+ -t 0.24032 -s 2 -d 0 -p cbr -e 210 -c 2 -i 38 -a 2 -x {2.0 5.0 6 ------- null}
- -t 0.24032 -s 2 -d 0 -p cbr -e 210 -c 2 -i 38 -a 2 -x {2.0 5.0 6 ------- null}
h -t 0.24032 -s 2 -d 0 -p cbr -e 210 -c 2 -i 38 -a 2 -x {2.0 5.0 -1 ------- null}
r -t 0.24184 -s 0 -d 5 -p cbr -e 210 -c 2 -i 29 -a 2 -x {2.0 5.0 3 ------- null}
r -t 0.24208 -s 0 -d 1 -p ack -e 40 -c 1 -i 31 -a 1 -x {4.0 1.0 4 ------- null}
+ -t 0.24208 -s 1 -d 0 -p tcp -e 1040 -c 1 -i 39 -a 1 -x {1.0 4.0 9 ------- null}
+ -t 0.24208 -s 1 -d 0 -p tcp -e 1040 -c 1 -i 40 -a 1 -x {1.0 4.0 10 ------- null}
- -t 0.24208 -s 1 -d 0 -p tcp -e 1040 -c 1 -i 37 -a 1 -x {1.0 4.0 8 ------- null}
h -t 0.24208 -s 1 -d 0 -p tcp -e 1040 -c 1 -i 37 -a 1 -x {1.0 4.0 -1 ------- null}
r -t 0.24444 -s 2 -d 0 -p cbr -e 210 -c 2 -i 35 -a 2 -x {2.0 5.0 5 ------- null}
+ -t 0.24444 -s 0 -d 5 -p cbr -e 210 -c 2 -i 35 -a 2 -x {2.0 5.0 5 ------- null}
- -t 0.24444 -s 0 -d 5 -p cbr -e 210 -c 2 -i 35 -a 2 -x {2.0 5.0 5 ------- null}
h -t 0.24444 -s 0 -d 5 -p cbr -e 210 -c 2 -i 35 -a 2 -x {2.0 5.0 -1 ------- null}
r -t 0.24624 -s 0 -d 1 -p ack -e 40 -c 1 -i 32 -a 1 -x {4.0 1.0 5 ------- null}
+ -t 0.24624 -s 1 -d 0 -p tcp -e 1040 -c 1 -i 41 -a 1 -x {1.0 4.0 11 ------- null}
+ -t 0.24624 -s 1 -d 0 -p tcp -e 1040 -c 1 -i 42 -a 1 -x {1.0 4.0 12 ------- null}
- -t 0.24624 -s 1 -d 0 -p tcp -e 1040 -c 1 -i 39 -a 1 -x {1.0 4.0 9 ------- null}
h -t 0.24624 -s 1 -d 0 -p tcp -e 1040 -c 1 -i 39 -a 1 -x {1.0 4.0 -1 ------- null}
+ -t 0.24704 -s 2 -d 0 -p cbr -e 210 -c 2 -i 43 -a 2 -x {2.0 5.0 7 ------- null}
- -t 0.24704 -s 2 -d 0 -p cbr -e 210 -c 2 -i 43 -a 2 -x {2.0 5.0 7 ------- null}
h -t 0.24704 -s 2 -d 0 -p cbr -e 210 -c 2 -i 43 -a 2 -x {2.0 5.0 -1 ------- null}
r -t 0.24856 -s 0 -d 5 -p cbr -e 210 -c 2 -i 33 -a 2 -x {2.0 5.0 4 ------- null}
r -t 0.2504 -s 0 -d 1 -p ack -e 40 -c 1 -i 34 -a 1 -x {4.0 1.0 6 ------- null}
+ -t 0.2504 -s 1 -d 0 -p tcp -e 1040 -c 1 -i 44 -a 1 -x {1.0 4.0 13 ------- null}
+ -t 0.2504 -s 1 -d 0 -p tcp -e 1040 -c 1 -i 45 -a 1 -x {1.0 4.0 14 ------- null}
- -t 0.2504 -s 1 -d 0 -p tcp -e 1040 -c 1 -i 40 -a 1 -x {1.0 4.0 10 ------- null}
h -t 0.2504 -s 1 -d 0 -p tcp -e 1040 -c 1 -i 40 -a 1 -x {1.0 4.0 -1 ------- null}
r -t 0.25116 -s 2 -d 0 -p cbr -e 210 -c 2 -i 38 -a 2 -x {2.0 5.0 6 ------- null}
+ -t 0.25116 -s 0 -d 5 -p cbr -e 210 -c 2 -i 38 -a 2 -x {2.0 5.0 6 ------- null}
- -t 0.25116 -s 0 -d 5 -p cbr -e 210 -c 2 -i 38 -a 2 -x {2.0 5.0 6 ------- null}
h -t 0.25116 -s 0 -d 5 -p cbr -e 210 -c 2 -i 38 -a 2 -x {2.0 5.0 -1 ------- null}
r -t 0.25208 -s 1 -d 0 -p tcp -e 1040 -c 1 -i 36 -a 1 -x {1.0 4.0 7 ------- null}
+ -t 0.25208 -s 0 -d 4 -p tcp -e 1040 -c 1 -i 36 -a 1 -x {1.0 4.0 7 ------- null}
- -t 0.25208 -s 0 -d 4 -p tcp -e 1040 -c 1 -i 36 -a 1 -x {1.0 4.0 7 ------- null}
h -t 0.25208 -s 0 -d 4 -p tcp -e 1040 -c 1 -i 36 -a 1 -x {1.0 4.0 -1 ------- null}
+ -t 0.25376 -s 2 -d 0 -p cbr -e 210 -c 2 -i 46 -a 2 -x {2.0 5.0 8 ------- null}
- -t 0.25376 -s 2 -d 0 -p cbr -e 210 -c 2 -i 46 -a 2 -x {2.0 5.0 8 ------- null}
h -t 0.25376 -s 2 -d 0 -p cbr -e 210 -c 2 -i 46 -a 2 -x {2.0 5.0 -1 ------- null}
- -t 0.25456 -s 1 -d 0 -p tcp -e 1040 -c 1 -i 41 -a 1 -x {1.0 4.0 11 ------- null}
h -t 0.25456 -s 1 -d 0 -p tcp -e 1040 -c 1 -i 41 -a 1 -x {1.0 4.0 -1 ------- null}
r -t 0.25528 -s 0 -d 5 -p cbr -e 210 -c 2 -i 35 -a 2 -x {2.0 5.0 5 ------- null}
r -t 0.25624 -s 1 -d 0 -p tcp -e 1040 -c 1 -i 37 -a 1 -x {1.0 4.0 8 ------- null}
+ -t 0.25624 -s 0 -d 4 -p tcp -e 1040 -c 1 -i 37 -a 1 -x {1.0 4.0 8 ------- null}
- -t 0.25624 -s 0 -d 4 -p tcp -e 1040 -c 1 -i 37 -a 1 -x {1.0 4.0 8 ------- null}
h -t 0.25624 -s 0 -d 4 -p tcp -e 1040 -c 1 -i 37 -a 1 -x {1.0 4.0 -1 ------- null}
r -t 0.25788 -s 2 -d 0 -p cbr -e 210 -c 2 -i 43 -a 2 -x {2.0 5.0 7 ------- null}
+ -t 0.25788 -s 0 -d 5 -p cbr -e 210 -c 2 -i 43 -a 2 -x {2.0 5.0 7 ------- null}
- -t 0.25788 -s 0 -d 5 -p cbr -e 210 -c 2 -i 43 -a 2 -x {2.0 5.0 7 ------- null}
h -t 0.25788 -s 0 -d 5 -p cbr -e 210 -c 2 -i 43 -a 2 -x {2.0 5.0 -1 ------- null}
- -t 0.25872 -s 1 -d 0 -p tcp -e 1040 -c 1 -i 42 -a 1 -x {1.0 4.0 12 ------- null}
h -t 0.25872 -s 1 -d 0 -p tcp -e 1040 -c 1 -i 42 -a 1 -x {1.0 4.0 -1 ------- null}
r -t 0.2604 -s 1 -d 0 -p tcp -e 1040 -c 1 -i 39 -a 1 -x {1.0 4.0 9 ------- null}
+ -t 0.2604 -s 0 -d 4 -p tcp -e 1040 -c 1 -i 39 -a 1 -x {1.0 4.0 9 ------- null}
- -t 0.2604 -s 0 -d 4 -p tcp -e 1040 -c 1 -i 39 -a 1 -x {1.0 4.0 9 ------- null}
h -t 0.2604 -s 0 -d 4 -p tcp -e 1040 -c 1 -i 39 -a 1 -x {1.0 4.0 -1 ------- null}
+ -t 0.26048 -s 2 -d 0 -p cbr -e 210 -c 2 -i 47 -a 2 -x {2.0 5.0 9 ------- null}
- -t 0.26048 -s 2 -d 0 -p cbr -e 210 -c 2 -i 47 -a 2 -x {2.0 5.0 9 ------- null}
h -t 0.26048 -s 2 -d 0 -p cbr -e 210 -c 2 -i 47 -a 2 -x {2.0 5.0 -1 ------- null}
r -t 0.262 -s 0 -d 5 -p cbr -e 210 -c 2 -i 38 -a 2 -x {2.0 5.0 6 ------- null}
- -t 0.26288 -s 1 -d 0 -p tcp -e 1040 -c 1 -i 44 -a 1 -x {1.0 4.0 13 ------- null}
h -t 0.26288 -s 1 -d 0 -p tcp -e 1040 -c 1 -i 44 -a 1 -x {1.0 4.0 -1 ------- null}
r -t 0.26456 -s 1 -d 0 -p tcp -e 1040 -c 1 -i 40 -a 1 -x {1.0 4.0 10 ------- null}
+ -t 0.26456 -s 0 -d 4 -p tcp -e 1040 -c 1 -i 40 -a 1 -x {1.0 4.0 10 ------- null}
- -t 0.26456 -s 0 -d 4 -p tcp -e 1040 -c 1 -i 40 -a 1 -x {1.0 4.0 10 ------- null}
h -t 0.26456 -s 0 -d 4 -p tcp -e 1040 -c 1 -i 40 -a 1 -x {1.0 4.0 -1 ------- null}
r -t 0.2646 -s 2 -d 0 -p cbr -e 210 -c 2 -i 46 -a 2 -x {2.0 5.0 8 ------- null}
+ -t 0.2646 -s 0 -d 5 -p cbr -e 210 -c 2 -i 46 -a 2 -x {2.0 5.0 8 ------- null}
- -t 0.2646 -s 0 -d 5 -p cbr -e 210 -c 2 -i 46 -a 2 -x {2.0 5.0 8 ------- null}
h -t 0.2646 -s 0 -d 5 -p cbr -e 210 -c 2 -i 46 -a 2 -x {2.0 5.0 -1 ------- null}
r -t 0.26624 -s 0 -d 4 -p tcp -e 1040 -c 1 -i 36 -a 1 -x {1.0 4.0 7 ------- null}
+ -t 0.26624 -s 4 -d 0 -p ack -e 40 -c 1 -i 48 -a 1 -x {4.0 1.0 7 ------- null}
- -t 0.26624 -s 4 -d 0 -p ack -e 40 -c 1 -i 48 -a 1 -x {4.0 1.0 7 ------- null}
h -t 0.26624 -s 4 -d 0 -p ack -e 40 -c 1 -i 48 -a 1 -x {4.0 1.0 -1 ------- null}
- -t 0.26704 -s 1 -d 0 -p tcp -e 1040 -c 1 -i 45 -a 1 -x {1.0 4.0 14 ------- null}
h -t 0.26704 -s 1 -d 0 -p tcp -e 1040 -c 1 -i 45 -a 1 -x {1.0 4.0 -1 ------- null}
+ -t 0.2672 -s 2 -d 0 -p cbr -e 210 -c 2 -i 49 -a 2 -x {2.0 5.0 10 ------- null}
- -t 0.2672 -s 2 -d 0 -p cbr -e 210 -c 2 -i 49 -a 2 -x {2.0 5.0 10 ------- null}
h -t 0.2672 -s 2 -d 0 -p cbr -e 210 -c 2 -i 49 -a 2 -x {2.0 5.0 -1 ------- null}
r -t 0.26872 -s 1 -d 0 -p tcp -e 1040 -c 1 -i 41 -a 1 -x {1.0 4.0 11 ------- null}
+ -t 0.26872 -s 0 -d 4 -p tcp -e 1040 -c 1 -i 41 -a 1 -x {1.0 4.0 11 ------- null}
r -t 0.26872 -s 0 -d 5 -p cbr -e 210 -c 2 -i 43 -a 2 -x {2.0 5.0 7 ------- null}
- -t 0.26872 -s 0 -d 4 -p tcp -e 1040 -c 1 -i 41 -a 1 -x {1.0 4.0 11 ------- null}
h -t 0.26872 -s 0 -d 4 -p tcp -e 1040 -c 1 -i 41 -a 1 -x {1.0 4.0 -1 ------- null}
r -t 0.2704 -s 0 -d 4 -p tcp -e 1040 -c 1 -i 37 -a 1 -x {1.0 4.0 8 ------- null}
+ -t 0.2704 -s 4 -d 0 -p ack -e 40 -c 1 -i 50 -a 1 -x {4.0 1.0 8 ------- null}
- -t 0.2704 -s 4 -d 0 -p ack -e 40 -c 1 -i 50 -a 1 -x {4.0 1.0 8 ------- null}
h -t 0.2704 -s 4 -d 0 -p ack -e 40 -c 1 -i 50 -a 1 -x {4.0 1.0 -1 ------- null}
r -t 0.27132 -s 2 -d 0 -p cbr -e 210 -c 2 -i 47 -a 2 -x {2.0 5.0 9 ------- null}
+ -t 0.27132 -s 0 -d 5 -p cbr -e 210 -c 2 -i 47 -a 2 -x {2.0 5.0 9 ------- null}
- -t 0.27132 -s 0 -d 5 -p cbr -e 210 -c 2 -i 47 -a 2 -x {2.0 5.0 9 ------- null}
h -t 0.27132 -s 0 -d 5 -p cbr -e 210 -c 2 -i 47 -a 2 -x {2.0 5.0 -1 ------- null}
r -t 0.27288 -s 1 -d 0 -p tcp -e 1040 -c 1 -i 42 -a 1 -x {1.0 4.0 12 ------- null}
+ -t 0.27288 -s 0 -d 4 -p tcp -e 1040 -c 1 -i 42 -a 1 -x {1.0 4.0 12 ------- null}
- -t 0.27288 -s 0 -d 4 -p tcp -e 1040 -c 1 -i 42 -a 1 -x {1.0 4.0 12 ------- null}
h -t 0.27288 -s 0 -d 4 -p tcp -e 1040 -c 1 -i 42 -a 1 -x {1.0 4.0 -1 ------- null}
+ -t 0.27392 -s 2 -d 0 -p cbr -e 210 -c 2 -i 51 -a 2 -x {2.0 5.0 11 ------- null}
- -t 0.27392 -s 2 -d 0 -p cbr -e 210 -c 2 -i 51 -a 2 -x {2.0 5.0 11 ------- null}
h -t 0.27392 -s 2 -d 0 -p cbr -e 210 -c 2 -i 51 -a 2 -x {2.0 5.0 -1 ------- null}
r -t 0.27456 -s 0 -d 4 -p tcp -e 1040 -c 1 -i 39 -a 1 -x {1.0 4.0 9 ------- null}
+ -t 0.27456 -s 4 -d 0 -p ack -e 40 -c 1 -i 52 -a 1 -x {4.0 1.0 9 ------- null}
- -t 0.27456 -s 4 -d 0 -p ack -e 40 -c 1 -i 52 -a 1 -x {4.0 1.0 9 ------- null}
h -t 0.27456 -s 4 -d 0 -p ack -e 40 -c 1 -i 52 -a 1 -x {4.0 1.0 -1 ------- null}
r -t 0.27544 -s 0 -d 5 -p cbr -e 210 -c 2 -i 46 -a 2 -x {2.0 5.0 8 ------- null}
r -t 0.2764 -s 4 -d 0 -p ack -e 40 -c 1 -i 48 -a 1 -x {4.0 1.0 7 ------- null}
+ -t 0.2764 -s 0 -d 1 -p ack -e 40 -c 1 -i 48 -a 1 -x {4.0 1.0 7 ------- null}
- -t 0.2764 -s 0 -d 1 -p ack -e 40 -c 1 -i 48 -a 1 -x {4.0 1.0 7 ------- null}
h -t 0.2764 -s 0 -d 1 -p ack -e 40 -c 1 -i 48 -a 1 -x {4.0 1.0 -1 ------- null}
r -t 0.27704 -s 1 -d 0 -p tcp -e 1040 -c 1 -i 44 -a 1 -x {1.0 4.0 13 ------- null}
+ -t 0.27704 -s 0 -d 4 -p tcp -e 1040 -c 1 -i 44 -a 1 -x {1.0 4.0 13 ------- null}
- -t 0.27704 -s 0 -d 4 -p tcp -e 1040 -c 1 -i 44 -a 1 -x {1.0 4.0 13 ------- null}
h -t 0.27704 -s 0 -d 4 -p tcp -e 1040 -c 1 -i 44 -a 1 -x {1.0 4.0 -1 ------- null}
+ -t 0.277940357931862 -s 1 -d 0 -p rtProtoDV -e 7 -c 0 -i 53 -a 0 -x {1.2 0.1 -1 ------- null}
- -t 0.277940357931862 -s 1 -d 0 -p rtProtoDV -e 7 -c 0 -i 53 -a 0 -x {1.2 0.1 -1 ------- null}
h -t 0.277940357931862 -s 1 -d 0 -p rtProtoDV -e 7 -c 0 -i 53 -a 0 -x {1.2 0.1 -1 ------- null}
r -t 0.27804 -s 2 -d 0 -p cbr -e 210 -c 2 -i 49 -a 2 -x {2.0 5.0 10 ------- null}
+ -t 0.27804 -s 0 -d 5 -p cbr -e 210 -c 2 -i 49 -a 2 -x {2.0 5.0 10 ------- null}
- -t 0.27804 -s 0 -d 5 -p cbr -e 210 -c 2 -i 49 -a 2 -x {2.0 5.0 10 ------- null}
h -t 0.27804 -s 0 -d 5 -p cbr -e 210 -c 2 -i 49 -a 2 -x {2.0 5.0 -1 ------- null}
r -t 0.27872 -s 0 -d 4 -p tcp -e 1040 -c 1 -i 40 -a 1 -x {1.0 4.0 10 ------- null}
+ -t 0.27872 -s 4 -d 0 -p ack -e 40 -c 1 -i 54 -a 1 -x {4.0 1.0 10 ------- null}
- -t 0.27872 -s 4 -d 0 -p ack -e 40 -c 1 -i 54 -a 1 -x {4.0 1.0 10 ------- null}
h -t 0.27872 -s 4 -d 0 -p ack -e 40 -c 1 -i 54 -a 1 -x {4.0 1.0 -1 ------- null}
r -t 0.28056 -s 4 -d 0 -p ack -e 40 -c 1 -i 50 -a 1 -x {4.0 1.0 8 ------- null}
+ -t 0.28056 -s 0 -d 1 -p ack -e 40 -c 1 -i 50 -a 1 -x {4.0 1.0 8 ------- null}
- -t 0.28056 -s 0 -d 1 -p ack -e 40 -c 1 -i 50 -a 1 -x {4.0 1.0 8 ------- null}
h -t 0.28056 -s 0 -d 1 -p ack -e 40 -c 1 -i 50 -a 1 -x {4.0 1.0 -1 ------- null}
+ -t 0.28064 -s 2 -d 0 -p cbr -e 210 -c 2 -i 55 -a 2 -x {2.0 5.0 12 ------- null}