+ 0.00017 0 1 rtProtoDV 7 ------- 0 0.1 1.2 -1 0
- 0.00017 0 1 rtProtoDV 7 ------- 0 0.1 1.2 -1 0
+ 0.00017 0 2 rtProtoDV 7 ------- 0 0.1 2.2 -1 1
- 0.00017 0 2 rtProtoDV 7 ------- 0 0.1 2.2 -1 1
+ 0.00017 0 3 rtProtoDV 7 ------- 0 0.1 3.1 -1 2
- 0.00017 0 3 rtProtoDV 7 ------- 0 0.1 3.1 -1 2
+ 0.00017 0 4 rtProtoDV 7 ------- 0 0.1 4.2 -1 3
- 0.00017 0 4 rtProtoDV 7 ------- 0 0.1 4.2 -1 3
+ 0.00017 0 5 rtProtoDV 7 ------- 0 0.1 5.2 -1 4
- 0.00017 0 5 rtProtoDV 7 ------- 0 0.1 5.2 -1 4
+ 0.00017 0 6 rtProtoDV 7 ------- 0 0.1 6.1 -1 5
- 0.00017 0 6 rtProtoDV 7 ------- 0 0.1 6.1 -1 5
+ 0.007102 2 0 rtProtoDV 7 ------- 0 2.2 0.1 -1 6
- 0.007102 2 0 rtProtoDV 7 ------- 0 2.2 0.1 -1 6
r 0.010198 0 1 rtProtoDV 7 ------- 0 0.1 1.2 -1 0
+ 0.010198 1 0 rtProtoDV 7 ------- 0 1.2 0.1 -1 7
- 0.010198 1 0 rtProtoDV 7 ------- 0 1.2 0.1 -1 7
r 0.010198 0 2 rtProtoDV 7 ------- 0 0.1 2.2 -1 1
+ 0.010198 2 0 rtProtoDV 7 ------- 0 2.2 0.1 -1 8
- 0.010198 2 0 rtProtoDV 7 ------- 0 2.2 0.1 -1 8
r 0.010198 0 3 rtProtoDV 7 ------- 0 0.1 3.1 -1 2
+ 0.010198 3 0 rtProtoDV 7 ------- 0 3.1 0.1 -1 9
- 0.010198 3 0 rtProtoDV 7 ------- 0 3.1 0.1 -1 9
r 0.010198 0 4 rtProtoDV 7 ------- 0 0.1 4.2 -1 3
+ 0.010198 4 0 rtProtoDV 7 ------- 0 4.2 0.1 -1 10
- 0.010198 4 0 rtProtoDV 7 ------- 0 4.2 0.1 -1 10
r 0.010198 0 5 rtProtoDV 7 ------- 0 0.1 5.2 -1 4
+ 0.010198 5 0 rtProtoDV 7 ------- 0 5.2 0.1 -1 11
- 0.010198 5 0 rtProtoDV 7 ------- 0 5.2 0.1 -1 11
r 0.010198 0 6 rtProtoDV 7 ------- 0 0.1 6.1 -1 5
+ 0.010198 6 0 rtProtoDV 7 ------- 0 6.1 0.1 -1 12
- 0.010198 6 0 rtProtoDV 7 ------- 0 6.1 0.1 -1 12
r 0.01713 2 0 rtProtoDV 7 ------- 0 2.2 0.1 -1 6
r 0.020226 1 0 rtProtoDV 7 ------- 0 1.2 0.1 -1 7
r 0.020226 2 0 rtProtoDV 7 ------- 0 2.2 0.1 -1 8
r 0.020226 3 0 rtProtoDV 7 ------- 0 3.1 0.1 -1 9
r 0.020226 4 0 rtProtoDV 7 ------- 0 4.2 0.1 -1 10
r 0.020226 5 0 rtProtoDV 7 ------- 0 5.2 0.1 -1 11
r 0.020226 6 0 rtProtoDV 7 ------- 0 6.1 0.1 -1 12
+ 0.044061 3 0 rtProtoDV 7 ------- 0 3.1 0.1 -1 13
- 0.044061 3 0 rtProtoDV 7 ------- 0 3.1 0.1 -1 13
r 0.054089 3 0 rtProtoDV 7 ------- 0 3.1 0.1 -1 13
+ 0.1 1 0 tcp 40 ------- 1 1.0 4.0 0 14
- 0.1 1 0 tcp 40 ------- 1 1.0 4.0 0 14
r 0.11016 1 0 tcp 40 ------- 1 1.0 4.0 0 14
+ 0.11016 0 4 tcp 40 ------- 1 1.0 4.0 0 14
- 0.11016 0 4 tcp 40 ------- 1 1.0 4.0 0 14
r 0.12032 0 4 tcp 40 ------- 1 1.0 4.0 0 14
+ 0.12032 4 0 ack 40 ------- 1 4.0 1.0 0 15
- 0.12032 4 0 ack 40 ------- 1 4.0 1.0 0 15
r 0.13048 4 0 ack 40 ------- 1 4.0 1.0 0 15
+ 0.13048 0 1 ack 40 ------- 1 4.0 1.0 0 15
- 0.13048 0 1 ack 40 ------- 1 4.0 1.0 0 15
r 0.14064 0 1 ack 40 ------- 1 4.0 1.0 0 15
+ 0.14064 1 0 tcp 1040 ------- 1 1.0 4.0 1 16
- 0.14064 1 0 tcp 1040 ------- 1 1.0 4.0 1 16
+ 0.14064 1 0 tcp 1040 ------- 1 1.0 4.0 2 17
- 0.1448 1 0 tcp 1040 ------- 1 1.0 4.0 2 17
r 0.1548 1 0 tcp 1040 ------- 1 1.0 4.0 1 16
+ 0.1548 0 4 tcp 1040 ------- 1 1.0 4.0 1 16
- 0.1548 0 4 tcp 1040 ------- 1 1.0 4.0 1 16
+ 0.156481 6 0 rtProtoDV 7 ------- 0 6.1 0.1 -1 18
- 0.156481 6 0 rtProtoDV 7 ------- 0 6.1 0.1 -1 18
r 0.15896 1 0 tcp 1040 ------- 1 1.0 4.0 2 17
+ 0.15896 0 4 tcp 1040 ------- 1 1.0 4.0 2 17
- 0.15896 0 4 tcp 1040 ------- 1 1.0 4.0 2 17
r 0.166509 6 0 rtProtoDV 7 ------- 0 6.1 0.1 -1 18
r 0.16896 0 4 tcp 1040 ------- 1 1.0 4.0 1 16
+ 0.16896 4 0 ack 40 ------- 1 4.0 1.0 1 19
- 0.16896 4 0 ack 40 ------- 1 4.0 1.0 1 19
r 0.17312 0 4 tcp 1040 ------- 1 1.0 4.0 2 17
+ 0.17312 4 0 ack 40 ------- 1 4.0 1.0 2 20
- 0.17312 4 0 ack 40 ------- 1 4.0 1.0 2 20
r 0.17912 4 0 ack 40 ------- 1 4.0 1.0 1 19
+ 0.17912 0 1 ack 40 ------- 1 4.0 1.0 1 19
- 0.17912 0 1 ack 40 ------- 1 4.0 1.0 1 19
r 0.18328 4 0 ack 40 ------- 1 4.0 1.0 2 20
+ 0.18328 0 1 ack 40 ------- 1 4.0 1.0 2 20
- 0.18328 0 1 ack 40 ------- 1 4.0 1.0 2 20
r 0.18928 0 1 ack 40 ------- 1 4.0 1.0 1 19
+ 0.18928 1 0 tcp 1040 ------- 1 1.0 4.0 3 21
- 0.18928 1 0 tcp 1040 ------- 1 1.0 4.0 3 21
+ 0.18928 1 0 tcp 1040 ------- 1 1.0 4.0 4 22
r 0.19344 0 1 ack 40 ------- 1 4.0 1.0 2 20
+ 0.19344 1 0 tcp 1040 ------- 1 1.0 4.0 5 23
+ 0.19344 1 0 tcp 1040 ------- 1 1.0 4.0 6 24
- 0.19344 1 0 tcp 1040 ------- 1 1.0 4.0 4 22
- 0.1976 1 0 tcp 1040 ------- 1 1.0 4.0 5 23
+ 0.2 2 0 cbr 210 ------- 2 2.0 5.0 0 25
- 0.2 2 0 cbr 210 ------- 2 2.0 5.0 0 25
- 0.20176 1 0 tcp 1040 ------- 1 1.0 4.0 6 24
r 0.20344 1 0 tcp 1040 ------- 1 1.0 4.0 3 21
+ 0.20344 0 4 tcp 1040 ------- 1 1.0 4.0 3 21
- 0.20344 0 4 tcp 1040 ------- 1 1.0 4.0 3 21
+ 0.20672 2 0 cbr 210 ------- 2 2.0 5.0 1 26
- 0.20672 2 0 cbr 210 ------- 2 2.0 5.0 1 26
r 0.2076 1 0 tcp 1040 ------- 1 1.0 4.0 4 22
+ 0.2076 0 4 tcp 1040 ------- 1 1.0 4.0 4 22
- 0.2076 0 4 tcp 1040 ------- 1 1.0 4.0 4 22
r 0.21084 2 0 cbr 210 ------- 2 2.0 5.0 0 25
+ 0.21084 0 5 cbr 210 ------- 2 2.0 5.0 0 25
- 0.21084 0 5 cbr 210 ------- 2 2.0 5.0 0 25
r 0.21176 1 0 tcp 1040 ------- 1 1.0 4.0 5 23
+ 0.21176 0 4 tcp 1040 ------- 1 1.0 4.0 5 23
- 0.21176 0 4 tcp 1040 ------- 1 1.0 4.0 5 23
+ 0.21344 2 0 cbr 210 ------- 2 2.0 5.0 2 27
- 0.21344 2 0 cbr 210 ------- 2 2.0 5.0 2 27
r 0.21592 1 0 tcp 1040 ------- 1 1.0 4.0 6 24
+ 0.21592 0 4 tcp 1040 ------- 1 1.0 4.0 6 24
- 0.21592 0 4 tcp 1040 ------- 1 1.0 4.0 6 24
r 0.21756 2 0 cbr 210 ------- 2 2.0 5.0 1 26
+ 0.21756 0 5 cbr 210 ------- 2 2.0 5.0 1 26
- 0.21756 0 5 cbr 210 ------- 2 2.0 5.0 1 26
r 0.2176 0 4 tcp 1040 ------- 1 1.0 4.0 3 21
+ 0.2176 4 0 ack 40 ------- 1 4.0 1.0 3 28
- 0.2176 4 0 ack 40 ------- 1 4.0 1.0 3 28
+ 0.22016 2 0 cbr 210 ------- 2 2.0 5.0 3 29
- 0.22016 2 0 cbr 210 ------- 2 2.0 5.0 3 29
+ 0.220587 4 0 rtProtoDV 7 ------- 0 4.2 0.1 -1 30
- 0.220587 4 0 rtProtoDV 7 ------- 0 4.2 0.1 -1 30
r 0.22168 0 5 cbr 210 ------- 2 2.0 5.0 0 25
r 0.22176 0 4 tcp 1040 ------- 1 1.0 4.0 4 22
+ 0.22176 4 0 ack 40 ------- 1 4.0 1.0 4 31
- 0.22176 4 0 ack 40 ------- 1 4.0 1.0 4 31
r 0.22428 2 0 cbr 210 ------- 2 2.0 5.0 2 27
+ 0.22428 0 5 cbr 210 ------- 2 2.0 5.0 2 27
- 0.22428 0 5 cbr 210 ------- 2 2.0 5.0 2 27
r 0.22592 0 4 tcp 1040 ------- 1 1.0 4.0 5 23
+ 0.22592 4 0 ack 40 ------- 1 4.0 1.0 5 32
- 0.22592 4 0 ack 40 ------- 1 4.0 1.0 5 32
+ 0.22688 2 0 cbr 210 ------- 2 2.0 5.0 4 33
- 0.22688 2 0 cbr 210 ------- 2 2.0 5.0 4 33
r 0.22776 4 0 ack 40 ------- 1 4.0 1.0 3 28
+ 0.22776 0 1 ack 40 ------- 1 4.0 1.0 3 28
- 0.22776 0 1 ack 40 ------- 1 4.0 1.0 3 28
r 0.2284 0 5 cbr 210 ------- 2 2.0 5.0 1 26
r 0.23008 0 4 tcp 1040 ------- 1 1.0 4.0 6 24
+ 0.23008 4 0 ack 40 ------- 1 4.0 1.0 6 34
- 0.23008 4 0 ack 40 ------- 1 4.0 1.0 6 34
r 0.230615 4 0 rtProtoDV 7 ------- 0 4.2 0.1 -1 30
r 0.231 2 0 cbr 210 ------- 2 2.0 5.0 3 29
+ 0.231 0 5 cbr 210 ------- 2 2.0 5.0 3 29
- 0.231 0 5 cbr 210 ------- 2 2.0 5.0 3 29
r 0.23192 4 0 ack 40 ------- 1 4.0 1.0 4 31
+ 0.23192 0 1 ack 40 ------- 1 4.0 1.0 4 31
- 0.23192 0 1 ack 40 ------- 1 4.0 1.0 4 31
+ 0.2336 2 0 cbr 210 ------- 2 2.0 5.0 5 35
- 0.2336 2 0 cbr 210 ------- 2 2.0 5.0 5 35
r 0.23512 0 5 cbr 210 ------- 2 2.0 5.0 2 27
r 0.23608 4 0 ack 40 ------- 1 4.0 1.0 5 32
+ 0.23608 0 1 ack 40 ------- 1 4.0 1.0 5 32
- 0.23608 0 1 ack 40 ------- 1 4.0 1.0 5 32
r 0.23772 2 0 cbr 210 ------- 2 2.0 5.0 4 33
+ 0.23772 0 5 cbr 210 ------- 2 2.0 5.0 4 33
- 0.23772 0 5 cbr 210 ------- 2 2.0 5.0 4 33
r 0.23792 0 1 ack 40 ------- 1 4.0 1.0 3 28
+ 0.23792 1 0 tcp 1040 ------- 1 1.0 4.0 7 36
- 0.23792 1 0 tcp 1040 ------- 1 1.0 4.0 7 36
+ 0.23792 1 0 tcp 1040 ------- 1 1.0 4.0 8 37
r 0.24024 4 0 ack 40 ------- 1 4.0 1.0 6 34
+ 0.24024 0 1 ack 40 ------- 1 4.0 1.0 6 34
- 0.24024 0 1 ack 40 ------- 1 4.0 1.0 6 34
+ 0.24032 2 0 cbr 210 ------- 2 2.0 5.0 6 38
- 0.24032 2 0 cbr 210 ------- 2 2.0 5.0 6 38
r 0.24184 0 5 cbr 210 ------- 2 2.0 5.0 3 29
r 0.24208 0 1 ack 40 ------- 1 4.0 1.0 4 31
+ 0.24208 1 0 tcp 1040 ------- 1 1.0 4.0 9 39
+ 0.24208 1 0 tcp 1040 ------- 1 1.0 4.0 10 40
- 0.24208 1 0 tcp 1040 ------- 1 1.0 4.0 8 37
r 0.24444 2 0 cbr 210 ------- 2 2.0 5.0 5 35
+ 0.24444 0 5 cbr 210 ------- 2 2.0 5.0 5 35
- 0.24444 0 5 cbr 210 ------- 2 2.0 5.0 5 35
r 0.24624 0 1 ack 40 ------- 1 4.0 1.0 5 32
+ 0.24624 1 0 tcp 1040 ------- 1 1.0 4.0 11 41
+ 0.24624 1 0 tcp 1040 ------- 1 1.0 4.0 12 42
- 0.24624 1 0 tcp 1040 ------- 1 1.0 4.0 9 39
+ 0.24704 2 0 cbr 210 ------- 2 2.0 5.0 7 43
- 0.24704 2 0 cbr 210 ------- 2 2.0 5.0 7 43
r 0.24856 0 5 cbr 210 ------- 2 2.0 5.0 4 33
r 0.2504 0 1 ack 40 ------- 1 4.0 1.0 6 34
+ 0.2504 1 0 tcp 1040 ------- 1 1.0 4.0 13 44
+ 0.2504 1 0 tcp 1040 ------- 1 1.0 4.0 14 45
- 0.2504 1 0 tcp 1040 ------- 1 1.0 4.0 10 40
r 0.25116 2 0 cbr 210 ------- 2 2.0 5.0 6 38
+ 0.25116 0 5 cbr 210 ------- 2 2.0 5.0 6 38
- 0.25116 0 5 cbr 210 ------- 2 2.0 5.0 6 38
r 0.25208 1 0 tcp 1040 ------- 1 1.0 4.0 7 36
+ 0.25208 0 4 tcp 1040 ------- 1 1.0 4.0 7 36
- 0.25208 0 4 tcp 1040 ------- 1 1.0 4.0 7 36
+ 0.25376 2 0 cbr 210 ------- 2 2.0 5.0 8 46
- 0.25376 2 0 cbr 210 ------- 2 2.0 5.0 8 46
- 0.25456 1 0 tcp 1040 ------- 1 1.0 4.0 11 41
r 0.25528 0 5 cbr 210 ------- 2 2.0 5.0 5 35
r 0.25624 1 0 tcp 1040 ------- 1 1.0 4.0 8 37
+ 0.25624 0 4 tcp 1040 ------- 1 1.0 4.0 8 37
- 0.25624 0 4 tcp 1040 ------- 1 1.0 4.0 8 37
r 0.25788 2 0 cbr 210 ------- 2 2.0 5.0 7 43
+ 0.25788 0 5 cbr 210 ------- 2 2.0 5.0 7 43
- 0.25788 0 5 cbr 210 ------- 2 2.0 5.0 7 43
- 0.25872 1 0 tcp 1040 ------- 1 1.0 4.0 12 42
r 0.2604 1 0 tcp 1040 ------- 1 1.0 4.0 9 39
+ 0.2604 0 4 tcp 1040 ------- 1 1.0 4.0 9 39
- 0.2604 0 4 tcp 1040 ------- 1 1.0 4.0 9 39
+ 0.26048 2 0 cbr 210 ------- 2 2.0 5.0 9 47
- 0.26048 2 0 cbr 210 ------- 2 2.0 5.0 9 47
r 0.262 0 5 cbr 210 ------- 2 2.0 5.0 6 38
- 0.26288 1 0 tcp 1040 ------- 1 1.0 4.0 13 44
r 0.26456 1 0 tcp 1040 ------- 1 1.0 4.0 10 40
+ 0.26456 0 4 tcp 1040 ------- 1 1.0 4.0 10 40
- 0.26456 0 4 tcp 1040 ------- 1 1.0 4.0 10 40
r 0.2646 2 0 cbr 210 ------- 2 2.0 5.0 8 46
+ 0.2646 0 5 cbr 210 ------- 2 2.0 5.0 8 46
- 0.2646 0 5 cbr 210 ------- 2 2.0 5.0 8 46
r 0.26624 0 4 tcp 1040 ------- 1 1.0 4.0 7 36
+ 0.26624 4 0 ack 40 ------- 1 4.0 1.0 7 48
- 0.26624 4 0 ack 40 ------- 1 4.0 1.0 7 48
- 0.26704 1 0 tcp 1040 ------- 1 1.0 4.0 14 45
+ 0.2672 2 0 cbr 210 ------- 2 2.0 5.0 10 49
- 0.2672 2 0 cbr 210 ------- 2 2.0 5.0 10 49
r 0.26872 1 0 tcp 1040 ------- 1 1.0 4.0 11 41
+ 0.26872 0 4 tcp 1040 ------- 1 1.0 4.0 11 41
r 0.26872 0 5 cbr 210 ------- 2 2.0 5.0 7 43
- 0.26872 0 4 tcp 1040 ------- 1 1.0 4.0 11 41
r 0.2704 0 4 tcp 1040 ------- 1 1.0 4.0 8 37
+ 0.2704 4 0 ack 40 ------- 1 4.0 1.0 8 50
- 0.2704 4 0 ack 40 ------- 1 4.0 1.0 8 50
r 0.27132 2 0 cbr 210 ------- 2 2.0 5.0 9 47
+ 0.27132 0 5 cbr 210 ------- 2 2.0 5.0 9 47
- 0.27132 0 5 cbr 210 ------- 2 2.0 5.0 9 47
r 0.27288 1 0 tcp 1040 ------- 1 1.0 4.0 12 42
+ 0.27288 0 4 tcp 1040 ------- 1 1.0 4.0 12 42
- 0.27288 0 4 tcp 1040 ------- 1 1.0 4.0 12 42
+ 0.27392 2 0 cbr 210 ------- 2 2.0 5.0 11 51
- 0.27392 2 0 cbr 210 ------- 2 2.0 5.0 11 51
r 0.27456 0 4 tcp 1040 ------- 1 1.0 4.0 9 39
+ 0.27456 4 0 ack 40 ------- 1 4.0 1.0 9 52
- 0.27456 4 0 ack 40 ------- 1 4.0 1.0 9 52
r 0.27544 0 5 cbr 210 ------- 2 2.0 5.0 8 46
r 0.2764 4 0 ack 40 ------- 1 4.0 1.0 7 48
+ 0.2764 0 1 ack 40 ------- 1 4.0 1.0 7 48
- 0.2764 0 1 ack 40 ------- 1 4.0 1.0 7 48
r 0.27704 1 0 tcp 1040 ------- 1 1.0 4.0 13 44
+ 0.27704 0 4 tcp 1040 ------- 1 1.0 4.0 13 44
- 0.27704 0 4 tcp 1040 ------- 1 1.0 4.0 13 44
+ 0.27794 1 0 rtProtoDV 7 ------- 0 1.2 0.1 -1 53
- 0.27794 1 0 rtProtoDV 7 ------- 0 1.2 0.1 -1 53
r 0.27804 2 0 cbr 210 ------- 2 2.0 5.0 10 49
+ 0.27804 0 5 cbr 210 ------- 2 2.0 5.0 10 49
- 0.27804 0 5 cbr 210 ------- 2 2.0 5.0 10 49
r 0.27872 0 4 tcp 1040 ------- 1 1.0 4.0 10 40
+ 0.27872 4 0 ack 40 ------- 1 4.0 1.0 10 54
- 0.27872 4 0 ack 40 ------- 1 4.0 1.0 10 54
r 0.28056 4 0 ack 40 ------- 1 4.0 1.0 8 50
+ 0.28056 0 1 ack 40 ------- 1 4.0 1.0 8 50
- 0.28056 0 1 ack 40 ------- 1 4.0 1.0 8 50
+ 0.28064 2 0 cbr 210 ------- 2 2.0 5.0 12 55
- 0.28064 2 0 cbr 210 ------- 2 2.0 5.0 12 55
r 0.2812 1 0 tcp 1040 ------- 1 1.0 4.0 14 45
+ 0.2812 0 4 tcp 1040 ------- 1 1.0 4.0 14 45
- 0.2812 0 4 tcp 1040 ------- 1 1.0 4.0 14 45
r 0.28216 0 5 cbr 210 ------- 2 2.0 5.0 9 47
r 0.28288 0 4 tcp 1040 ------- 1 1.0 4.0 11 41
+ 0.28288 4 0 ack 40 ------- 1 4.0 1.0 11 56
- 0.28288 4 0 ack 40 ------- 1 4.0 1.0 11 56
r 0.28472 4 0 ack 40 ------- 1 4.0 1.0 9 52
+ 0.28472 0 1 ack 40 ------- 1 4.0 1.0 9 52
- 0.28472 0 1 ack 40 ------- 1 4.0 1.0 9 52
r 0.28476 2 0 cbr 210 ------- 2 2.0 5.0 11 51
+ 0.28476 0 5 cbr 210 ------- 2 2.0 5.0 11 51
- 0.28476 0 5 cbr 210 ------- 2 2.0 5.0 11 51
r 0.28656 0 1 ack 40 ------- 1 4.0 1.0 7 48
+ 0.28656 1 0 tcp 1040 ------- 1 1.0 4.0 15 57
- 0.28656 1 0 tcp 1040 ------- 1 1.0 4.0 15 57
+ 0.28656 1 0 tcp 1040 ------- 1 1.0 4.0 16 58
r 0.28704 0 4 tcp 1040 ------- 1 1.0 4.0 12 42
+ 0.28704 4 0 ack 40 ------- 1 4.0 1.0 12 59
- 0.28704 4 0 ack 40 ------- 1 4.0 1.0 12 59
+ 0.28736 2 0 cbr 210 ------- 2 2.0 5.0 13 60
- 0.28736 2 0 cbr 210 ------- 2 2.0 5.0 13 60
r 0.287968 1 0 rtProtoDV 7 ------- 0 1.2 0.1 -1 53
r 0.28888 0 5 cbr 210 ------- 2 2.0 5.0 10 49
r 0.28888 4 0 ack 40 ------- 1 4.0 1.0 10 54
+ 0.28888 0 1 ack 40 ------- 1 4.0 1.0 10 54
- 0.28888 0 1 ack 40 ------- 1 4.0 1.0 10 54
r 0.29072 0 1 ack 40 ------- 1 4.0 1.0 8 50
+ 0.29072 1 0 tcp 1040 ------- 1 1.0 4.0 17 61
+ 0.29072 1 0 tcp 1040 ------- 1 1.0 4.0 18 62
- 0.29072 1 0 tcp 1040 ------- 1 1.0 4.0 16 58
r 0.2912 0 4 tcp 1040 ------- 1 1.0 4.0 13 44
+ 0.2912 4 0 ack 40 ------- 1 4.0 1.0 13 63
- 0.2912 4 0 ack 40 ------- 1 4.0 1.0 13 63
r 0.29148 2 0 cbr 210 ------- 2 2.0 5.0 12 55
+ 0.29148 0 5 cbr 210 ------- 2 2.0 5.0 12 55
- 0.29148 0 5 cbr 210 ------- 2 2.0 5.0 12 55
r 0.29304 4 0 ack 40 ------- 1 4.0 1.0 11 56
+ 0.29304 0 1 ack 40 ------- 1 4.0 1.0 11 56
- 0.29304 0 1 ack 40 ------- 1 4.0 1.0 11 56
+ 0.29408 2 0 cbr 210 ------- 2 2.0 5.0 14 64
- 0.29408 2 0 cbr 210 ------- 2 2.0 5.0 14 64
r 0.29488 0 1 ack 40 ------- 1 4.0 1.0 9 52
+ 0.29488 1 0 tcp 1040 ------- 1 1.0 4.0 19 65
+ 0.29488 1 0 tcp 1040 ------- 1 1.0 4.0 20 66
- 0.29488 1 0 tcp 1040 ------- 1 1.0 4.0 17 61
r 0.29536 0 4 tcp 1040 ------- 1 1.0 4.0 14 45
+ 0.29536 4 0 ack 40 ------- 1 4.0 1.0 14 67
- 0.29536 4 0 ack 40 ------- 1 4.0 1.0 14 67
r 0.2956 0 5 cbr 210 ------- 2 2.0 5.0 11 51
r 0.2972 4 0 ack 40 ------- 1 4.0 1.0 12 59
+ 0.2972 0 1 ack 40 ------- 1 4.0 1.0 12 59
- 0.2972 0 1 ack 40 ------- 1 4.0 1.0 12 59
r 0.2982 2 0 cbr 210 ------- 2 2.0 5.0 13 60
+ 0.2982 0 5 cbr 210 ------- 2 2.0 5.0 13 60
- 0.2982 0 5 cbr 210 ------- 2 2.0 5.0 13 60
- 0.29904 1 0 tcp 1040 ------- 1 1.0 4.0 18 62
r 0.29904 0 1 ack 40 ------- 1 4.0 1.0 10 54
+ 0.29904 1 0 tcp 1040 ------- 1 1.0 4.0 21 68
+ 0.29904 1 0 tcp 1040 ------- 1 1.0 4.0 22 69
r 0.30072 1 0 tcp 1040 ------- 1 1.0 4.0 15 57
+ 0.30072 0 4 tcp 1040 ------- 1 1.0 4.0 15 57
- 0.30072 0 4 tcp 1040 ------- 1 1.0 4.0 15 57
+ 0.3008 2 0 cbr 210 ------- 2 2.0 5.0 15 70
- 0.3008 2 0 cbr 210 ------- 2 2.0 5.0 15 70
r 0.30136 4 0 ack 40 ------- 1 4.0 1.0 13 63
+ 0.30136 0 1 ack 40 ------- 1 4.0 1.0 13 63
- 0.30136 0 1 ack 40 ------- 1 4.0 1.0 13 63
r 0.30232 0 5 cbr 210 ------- 2 2.0 5.0 12 55
- 0.3032 1 0 tcp 1040 ------- 1 1.0 4.0 19 65
r 0.3032 0 1 ack 40 ------- 1 4.0 1.0 11 56
+ 0.3032 1 0 tcp 1040 ------- 1 1.0 4.0 23 71
+ 0.3032 1 0 tcp 1040 ------- 1 1.0 4.0 24 72
r 0.30488 1 0 tcp 1040 ------- 1 1.0 4.0 16 58
+ 0.30488 0 4 tcp 1040 ------- 1 1.0 4.0 16 58
- 0.30488 0 4 tcp 1040 ------- 1 1.0 4.0 16 58
r 0.30492 2 0 cbr 210 ------- 2 2.0 5.0 14 64
+ 0.30492 0 5 cbr 210 ------- 2 2.0 5.0 14 64
- 0.30492 0 5 cbr 210 ------- 2 2.0 5.0 14 64
r 0.30552 4 0 ack 40 ------- 1 4.0 1.0 14 67
+ 0.30552 0 1 ack 40 ------- 1 4.0 1.0 14 67
- 0.30552 0 1 ack 40 ------- 1 4.0 1.0 14 67
- 0.30736 1 0 tcp 1040 ------- 1 1.0 4.0 20 66
r 0.30736 0 1 ack 40 ------- 1 4.0 1.0 12 59
+ 0.30736 1 0 tcp 1040 ------- 1 1.0 4.0 25 73
+ 0.30736 1 0 tcp 1040 ------- 1 1.0 4.0 26 74
+ 0.30752 2 0 cbr 210 ------- 2 2.0 5.0 16 75
- 0.30752 2 0 cbr 210 ------- 2 2.0 5.0 16 75
r 0.30904 1 0 tcp 1040 ------- 1 1.0 4.0 17 61
+ 0.30904 0 4 tcp 1040 ------- 1 1.0 4.0 17 61
- 0.30904 0 4 tcp 1040 ------- 1 1.0 4.0 17 61
r 0.30904 0 5 cbr 210 ------- 2 2.0 5.0 13 60
- 0.31152 1 0 tcp 1040 ------- 1 1.0 4.0 21 68
r 0.31152 0 1 ack 40 ------- 1 4.0 1.0 13 63
+ 0.31152 1 0 tcp 1040 ------- 1 1.0 4.0 27 76
+ 0.31152 1 0 tcp 1040 ------- 1 1.0 4.0 28 77
r 0.31164 2 0 cbr 210 ------- 2 2.0 5.0 15 70
+ 0.31164 0 5 cbr 210 ------- 2 2.0 5.0 15 70
- 0.31164 0 5 cbr 210 ------- 2 2.0 5.0 15 70
r 0.3132 1 0 tcp 1040 ------- 1 1.0 4.0 18 62
+ 0.3132 0 4 tcp 1040 ------- 1 1.0 4.0 18 62
- 0.3132 0 4 tcp 1040 ------- 1 1.0 4.0 18 62
+ 0.31424 2 0 cbr 210 ------- 2 2.0 5.0 17 78
- 0.31424 2 0 cbr 210 ------- 2 2.0 5.0 17 78
r 0.31488 0 4 tcp 1040 ------- 1 1.0 4.0 15 57
+ 0.31488 4 0 ack 40 ------- 1 4.0 1.0 15 79
- 0.31488 4 0 ack 40 ------- 1 4.0 1.0 15 79
- 0.31568 1 0 tcp 1040 ------- 1 1.0 4.0 22 69
r 0.31568 0 1 ack 40 ------- 1 4.0 1.0 14 67
+ 0.31568 1 0 tcp 1040 ------- 1 1.0 4.0 29 80
+ 0.31568 1 0 tcp 1040 ------- 1 1.0 4.0 30 81
r 0.31576 0 5 cbr 210 ------- 2 2.0 5.0 14 64
r 0.31736 1 0 tcp 1040 ------- 1 1.0 4.0 19 65
+ 0.31736 0 4 tcp 1040 ------- 1 1.0 4.0 19 65
- 0.31736 0 4 tcp 1040 ------- 1 1.0 4.0 19 65
r 0.31836 2 0 cbr 210 ------- 2 2.0 5.0 16 75
+ 0.31836 0 5 cbr 210 ------- 2 2.0 5.0 16 75
- 0.31836 0 5 cbr 210 ------- 2 2.0 5.0 16 75
r 0.31904 0 4 tcp 1040 ------- 1 1.0 4.0 16 58
+ 0.31904 4 0 ack 40 ------- 1 4.0 1.0 16 82
- 0.31904 4 0 ack 40 ------- 1 4.0 1.0 16 82
- 0.31984 1 0 tcp 1040 ------- 1 1.0 4.0 23 71
+ 0.32096 2 0 cbr 210 ------- 2 2.0 5.0 18 83
- 0.32096 2 0 cbr 210 ------- 2 2.0 5.0 18 83
r 0.32152 1 0 tcp 1040 ------- 1 1.0 4.0 20 66
+ 0.32152 0 4 tcp 1040 ------- 1 1.0 4.0 20 66
- 0.32152 0 4 tcp 1040 ------- 1 1.0 4.0 20 66
r 0.32248 0 5 cbr 210 ------- 2 2.0 5.0 15 70
r 0.3232 0 4 tcp 1040 ------- 1 1.0 4.0 17 61
+ 0.3232 4 0 ack 40 ------- 1 4.0 1.0 17 84
- 0.3232 4 0 ack 40 ------- 1 4.0 1.0 17 84
- 0.324 1 0 tcp 1040 ------- 1 1.0 4.0 24 72
r 0.32504 4 0 ack 40 ------- 1 4.0 1.0 15 79
+ 0.32504 0 1 ack 40 ------- 1 4.0 1.0 15 79
- 0.32504 0 1 ack 40 ------- 1 4.0 1.0 15 79
r 0.32508 2 0 cbr 210 ------- 2 2.0 5.0 17 78
+ 0.32508 0 5 cbr 210 ------- 2 2.0 5.0 17 78
- 0.32508 0 5 cbr 210 ------- 2 2.0 5.0 17 78
r 0.32568 1 0 tcp 1040 ------- 1 1.0 4.0 21 68
+ 0.32568 0 4 tcp 1040 ------- 1 1.0 4.0 21 68
- 0.32568 0 4 tcp 1040 ------- 1 1.0 4.0 21 68
r 0.32736 0 4 tcp 1040 ------- 1 1.0 4.0 18 62
+ 0.32736 4 0 ack 40 ------- 1 4.0 1.0 18 85
- 0.32736 4 0 ack 40 ------- 1 4.0 1.0 18 85
+ 0.32768 2 0 cbr 210 ------- 2 2.0 5.0 19 86
- 0.32768 2 0 cbr 210 ------- 2 2.0 5.0 19 86
- 0.32816 1 0 tcp 1040 ------- 1 1.0 4.0 25 73
r 0.3292 4 0 ack 40 ------- 1 4.0 1.0 16 82
+ 0.3292 0 1 ack 40 ------- 1 4.0 1.0 16 82
- 0.3292 0 1 ack 40 ------- 1 4.0 1.0 16 82
r 0.3292 0 5 cbr 210 ------- 2 2.0 5.0 16 75
r 0.32984 1 0 tcp 1040 ------- 1 1.0 4.0 22 69
+ 0.32984 0 4 tcp 1040 ------- 1 1.0 4.0 22 69
- 0.32984 0 4 tcp 1040 ------- 1 1.0 4.0 22 69
r 0.33152 0 4 tcp 1040 ------- 1 1.0 4.0 19 65
+ 0.33152 4 0 ack 40 ------- 1 4.0 1.0 19 87
- 0.33152 4 0 ack 40 ------- 1 4.0 1.0 19 87
r 0.3318 2 0 cbr 210 ------- 2 2.0 5.0 18 83
+ 0.3318 0 5 cbr 210 ------- 2 2.0 5.0 18 83
- 0.3318 0 5 cbr 210 ------- 2 2.0 5.0 18 83
- 0.33232 1 0 tcp 1040 ------- 1 1.0 4.0 26 74
r 0.33336 4 0 ack 40 ------- 1 4.0 1.0 17 84
+ 0.33336 0 1 ack 40 ------- 1 4.0 1.0 17 84
- 0.33336 0 1 ack 40 ------- 1 4.0 1.0 17 84
r 0.334 1 0 tcp 1040 ------- 1 1.0 4.0 23 71
+ 0.334 0 4 tcp 1040 ------- 1 1.0 4.0 23 71
- 0.334 0 4 tcp 1040 ------- 1 1.0 4.0 23 71
+ 0.3344 2 0 cbr 210 ------- 2 2.0 5.0 20 88
- 0.3344 2 0 cbr 210 ------- 2 2.0 5.0 20 88
r 0.3352 0 1 ack 40 ------- 1 4.0 1.0 15 79
+ 0.3352 1 0 tcp 1040 ------- 1 1.0 4.0 31 89
+ 0.3352 1 0 tcp 1040 ------- 1 1.0 4.0 32 90
r 0.33568 0 4 tcp 1040 ------- 1 1.0 4.0 20 66
+ 0.33568 4 0 ack 40 ------- 1 4.0 1.0 20 91
- 0.33568 4 0 ack 40 ------- 1 4.0 1.0 20 91
r 0.33592 0 5 cbr 210 ------- 2 2.0 5.0 17 78
- 0.33648 1 0 tcp 1040 ------- 1 1.0 4.0 27 76
r 0.33752 4 0 ack 40 ------- 1 4.0 1.0 18 85
+ 0.33752 0 1 ack 40 ------- 1 4.0 1.0 18 85
- 0.33752 0 1 ack 40 ------- 1 4.0 1.0 18 85
r 0.33816 1 0 tcp 1040 ------- 1 1.0 4.0 24 72
+ 0.33816 0 4 tcp 1040 ------- 1 1.0 4.0 24 72
- 0.33816 0 4 tcp 1040 ------- 1 1.0 4.0 24 72
r 0.33852 2 0 cbr 210 ------- 2 2.0 5.0 19 86
+ 0.33852 0 5 cbr 210 ------- 2 2.0 5.0 19 86
- 0.33852 0 5 cbr 210 ------- 2 2.0 5.0 19 86
r 0.33936 0 1 ack 40 ------- 1 4.0 1.0 16 82
+ 0.33936 1 0 tcp 1040 ------- 1 1.0 4.0 33 92
+ 0.33936 1 0 tcp 1040 ------- 1 1.0 4.0 34 93
r 0.33984 0 4 tcp 1040 ------- 1 1.0 4.0 21 68
+ 0.33984 4 0 ack 40 ------- 1 4.0 1.0 21 94
- 0.33984 4 0 ack 40 ------- 1 4.0 1.0 21 94
- 0.34064 1 0 tcp 1040 ------- 1 1.0 4.0 28 77
+ 0.34112 2 0 cbr 210 ------- 2 2.0 5.0 21 95
- 0.34112 2 0 cbr 210 ------- 2 2.0 5.0 21 95
r 0.34168 4 0 ack 40 ------- 1 4.0 1.0 19 87
+ 0.34168 0 1 ack 40 ------- 1 4.0 1.0 19 87
- 0.34168 0 1 ack 40 ------- 1 4.0 1.0 19 87
r 0.34232 1 0 tcp 1040 ------- 1 1.0 4.0 25 73
+ 0.34232 0 4 tcp 1040 ------- 1 1.0 4.0 25 73
- 0.34232 0 4 tcp 1040 ------- 1 1.0 4.0 25 73
r 0.34264 0 5 cbr 210 ------- 2 2.0 5.0 18 83
r 0.34352 0 1 ack 40 ------- 1 4.0 1.0 17 84
+ 0.34352 1 0 tcp 1040 ------- 1 1.0 4.0 35 96
+ 0.34352 1 0 tcp 1040 ------- 1 1.0 4.0 36 97
r 0.344 0 4 tcp 1040 ------- 1 1.0 4.0 22 69
+ 0.344 4 0 ack 40 ------- 1 4.0 1.0 22 98
- 0.344 4 0 ack 40 ------- 1 4.0 1.0 22 98
- 0.3448 1 0 tcp 1040 ------- 1 1.0 4.0 29 80
r 0.34524 2 0 cbr 210 ------- 2 2.0 5.0 20 88
+ 0.34524 0 5 cbr 210 ------- 2 2.0 5.0 20 88
- 0.34524 0 5 cbr 210 ------- 2 2.0 5.0 20 88
r 0.34584 4 0 ack 40 ------- 1 4.0 1.0 20 91
+ 0.34584 0 1 ack 40 ------- 1 4.0 1.0 20 91
- 0.34584 0 1 ack 40 ------- 1 4.0 1.0 20 91
r 0.34648 1 0 tcp 1040 ------- 1 1.0 4.0 26 74
+ 0.34648 0 4 tcp 1040 ------- 1 1.0 4.0 26 74
- 0.34648 0 4 tcp 1040 ------- 1 1.0 4.0 26 74
r 0.34768 0 1 ack 40 ------- 1 4.0 1.0 18 85
+ 0.34768 1 0 tcp 1040 ------- 1 1.0 4.0 37 99
+ 0.34768 1 0 tcp 1040 ------- 1 1.0 4.0 38 100
+ 0.34784 2 0 cbr 210 ------- 2 2.0 5.0 22 101
- 0.34784 2 0 cbr 210 ------- 2 2.0 5.0 22 101
r 0.34816 0 4 tcp 1040 ------- 1 1.0 4.0 23 71
+ 0.34816 4 0 ack 40 ------- 1 4.0 1.0 23 102
- 0.34816 4 0 ack 40 ------- 1 4.0 1.0 23 102
- 0.34896 1 0 tcp 1040 ------- 1 1.0 4.0 30 81
r 0.34936 0 5 cbr 210 ------- 2 2.0 5.0 19 86
r 0.35 4 0 ack 40 ------- 1 4.0 1.0 21 94
+ 0.35 0 1 ack 40 ------- 1 4.0 1.0 21 94
- 0.35 0 1 ack 40 ------- 1 4.0 1.0 21 94
r 0.35064 1 0 tcp 1040 ------- 1 1.0 4.0 27 76
+ 0.35064 0 4 tcp 1040 ------- 1 1.0 4.0 27 76
- 0.35064 0 4 tcp 1040 ------- 1 1.0 4.0 27 76
r 0.35184 0 1 ack 40 ------- 1 4.0 1.0 19 87
+ 0.35184 1 0 tcp 1040 ------- 1 1.0 4.0 39 103
r 0.35196 2 0 cbr 210 ------- 2 2.0 5.0 21 95
+ 0.35196 0 5 cbr 210 ------- 2 2.0 5.0 21 95
- 0.35196 0 5 cbr 210 ------- 2 2.0 5.0 21 95
r 0.35232 0 4 tcp 1040 ------- 1 1.0 4.0 24 72
+ 0.35232 4 0 ack 40 ------- 1 4.0 1.0 24 104
- 0.35232 4 0 ack 40 ------- 1 4.0 1.0 24 104
- 0.35312 1 0 tcp 1040 ------- 1 1.0 4.0 31 89
r 0.35416 4 0 ack 40 ------- 1 4.0 1.0 22 98
+ 0.35416 0 1 ack 40 ------- 1 4.0 1.0 22 98
- 0.35416 0 1 ack 40 ------- 1 4.0 1.0 22 98
+ 0.35456 2 0 cbr 210 ------- 2 2.0 5.0 23 105
- 0.35456 2 0 cbr 210 ------- 2 2.0 5.0 23 105
r 0.3548 1 0 tcp 1040 ------- 1 1.0 4.0 28 77
+ 0.3548 0 4 tcp 1040 ------- 1 1.0 4.0 28 77
- 0.3548 0 4 tcp 1040 ------- 1 1.0 4.0 28 77
r 0.356 0 1 ack 40 ------- 1 4.0 1.0 20 91
+ 0.356 1 0 tcp 1040 ------- 1 1.0 4.0 40 106
r 0.35608 0 5 cbr 210 ------- 2 2.0 5.0 20 88
r 0.35648 0 4 tcp 1040 ------- 1 1.0 4.0 25 73
+ 0.35648 4 0 ack 40 ------- 1 4.0 1.0 25 107
- 0.35648 4 0 ack 40 ------- 1 4.0 1.0 25 107
- 0.35728 1 0 tcp 1040 ------- 1 1.0 4.0 32 90
r 0.35832 4 0 ack 40 ------- 1 4.0 1.0 23 102
+ 0.35832 0 1 ack 40 ------- 1 4.0 1.0 23 102
- 0.35832 0 1 ack 40 ------- 1 4.0 1.0 23 102
r 0.35868 2 0 cbr 210 ------- 2 2.0 5.0 22 101
+ 0.35868 0 5 cbr 210 ------- 2 2.0 5.0 22 101
- 0.35868 0 5 cbr 210 ------- 2 2.0 5.0 22 101
r 0.35896 1 0 tcp 1040 ------- 1 1.0 4.0 29 80
+ 0.35896 0 4 tcp 1040 ------- 1 1.0 4.0 29 80
- 0.35896 0 4 tcp 1040 ------- 1 1.0 4.0 29 80
r 0.36016 0 1 ack 40 ------- 1 4.0 1.0 21 94
+ 0.36016 1 0 tcp 1040 ------- 1 1.0 4.0 41 108
r 0.36064 0 4 tcp 1040 ------- 1 1.0 4.0 26 74
+ 0.36064 4 0 ack 40 ------- 1 4.0 1.0 26 109
- 0.36064 4 0 ack 40 ------- 1 4.0 1.0 26 109
+ 0.36128 2 0 cbr 210 ------- 2 2.0 5.0 24 110
- 0.36128 2 0 cbr 210 ------- 2 2.0 5.0 24 110
- 0.36144 1 0 tcp 1040 ------- 1 1.0 4.0 33 92
r 0.36248 4 0 ack 40 ------- 1 4.0 1.0 24 104
+ 0.36248 0 1 ack 40 ------- 1 4.0 1.0 24 104
- 0.36248 0 1 ack 40 ------- 1 4.0 1.0 24 104
r 0.3628 0 5 cbr 210 ------- 2 2.0 5.0 21 95
r 0.36312 1 0 tcp 1040 ------- 1 1.0 4.0 30 81
+ 0.36312 0 4 tcp 1040 ------- 1 1.0 4.0 30 81
- 0.36312 0 4 tcp 1040 ------- 1 1.0 4.0 30 81
r 0.36432 0 1 ack 40 ------- 1 4.0 1.0 22 98
+ 0.36432 1 0 tcp 1040 ------- 1 1.0 4.0 42 111
r 0.3648 0 4 tcp 1040 ------- 1 1.0 4.0 27 76
+ 0.3648 4 0 ack 40 ------- 1 4.0 1.0 27 112
- 0.3648 4 0 ack 40 ------- 1 4.0 1.0 27 112
r 0.3654 2 0 cbr 210 ------- 2 2.0 5.0 23 105
+ 0.3654 0 5 cbr 210 ------- 2 2.0 5.0 23 105
- 0.3654 0 5 cbr 210 ------- 2 2.0 5.0 23 105
- 0.3656 1 0 tcp 1040 ------- 1 1.0 4.0 34 93
r 0.36664 4 0 ack 40 ------- 1 4.0 1.0 25 107
+ 0.36664 0 1 ack 40 ------- 1 4.0 1.0 25 107
- 0.36664 0 1 ack 40 ------- 1 4.0 1.0 25 107
r 0.36728 1 0 tcp 1040 ------- 1 1.0 4.0 31 89
+ 0.36728 0 4 tcp 1040 ------- 1 1.0 4.0 31 89
- 0.36728 0 4 tcp 1040 ------- 1 1.0 4.0 31 89
+ 0.368 2 0 cbr 210 ------- 2 2.0 5.0 25 113
- 0.368 2 0 cbr 210 ------- 2 2.0 5.0 25 113
r 0.36848 0 1 ack 40 ------- 1 4.0 1.0 23 102
+ 0.36848 1 0 tcp 1040 ------- 1 1.0 4.0 43 114
r 0.36896 0 4 tcp 1040 ------- 1 1.0 4.0 28 77
+ 0.36896 4 0 ack 40 ------- 1 4.0 1.0 28 115
- 0.36896 4 0 ack 40 ------- 1 4.0 1.0 28 115
r 0.36952 0 5 cbr 210 ------- 2 2.0 5.0 22 101
- 0.36976 1 0 tcp 1040 ------- 1 1.0 4.0 35 96
r 0.3708 4 0 ack 40 ------- 1 4.0 1.0 26 109
+ 0.3708 0 1 ack 40 ------- 1 4.0 1.0 26 109
- 0.3708 0 1 ack 40 ------- 1 4.0 1.0 26 109
r 0.37144 1 0 tcp 1040 ------- 1 1.0 4.0 32 90
+ 0.37144 0 4 tcp 1040 ------- 1 1.0 4.0 32 90
- 0.37144 0 4 tcp 1040 ------- 1 1.0 4.0 32 90
r 0.37212 2 0 cbr 210 ------- 2 2.0 5.0 24 110
+ 0.37212 0 5 cbr 210 ------- 2 2.0 5.0 24 110
- 0.37212 0 5 cbr 210 ------- 2 2.0 5.0 24 110
r 0.37264 0 1 ack 40 ------- 1 4.0 1.0 24 104
+ 0.37264 1 0 tcp 1040 ------- 1 1.0 4.0 44 116
r 0.37312 0 4 tcp 1040 ------- 1 1.0 4.0 29 80
+ 0.37312 4 0 ack 40 ------- 1 4.0 1.0 29 117
- 0.37312 4 0 ack 40 ------- 1 4.0 1.0 29 117
- 0.37392 1 0 tcp 1040 ------- 1 1.0 4.0 36 97
+ 0.37472 2 0 cbr 210 ------- 2 2.0 5.0 26 118
- 0.37472 2 0 cbr 210 ------- 2 2.0 5.0 26 118
r 0.37496 4 0 ack 40 ------- 1 4.0 1.0 27 112
+ 0.37496 0 1 ack 40 ------- 1 4.0 1.0 27 112
- 0.37496 0 1 ack 40 ------- 1 4.0 1.0 27 112
r 0.3756 1 0 tcp 1040 ------- 1 1.0 4.0 33 92
+ 0.3756 0 4 tcp 1040 ------- 1 1.0 4.0 33 92
- 0.3756 0 4 tcp 1040 ------- 1 1.0 4.0 33 92
r 0.37624 0 5 cbr 210 ------- 2 2.0 5.0 23 105
r 0.3768 0 1 ack 40 ------- 1 4.0 1.0 25 107
+ 0.3768 1 0 tcp 1040 ------- 1 1.0 4.0 45 119
r 0.37728 0 4 tcp 1040 ------- 1 1.0 4.0 30 81
+ 0.37728 4 0 ack 40 ------- 1 4.0 1.0 30 120
- 0.37728 4 0 ack 40 ------- 1 4.0 1.0 30 120
- 0.37808 1 0 tcp 1040 ------- 1 1.0 4.0 37 99
r 0.37884 2 0 cbr 210 ------- 2 2.0 5.0 25 113
+ 0.37884 0 5 cbr 210 ------- 2 2.0 5.0 25 113
- 0.37884 0 5 cbr 210 ------- 2 2.0 5.0 25 113
r 0.37912 4 0 ack 40 ------- 1 4.0 1.0 28 115
+ 0.37912 0 1 ack 40 ------- 1 4.0 1.0 28 115
- 0.37912 0 1 ack 40 ------- 1 4.0 1.0 28 115
r 0.37976 1 0 tcp 1040 ------- 1 1.0 4.0 34 93
+ 0.37976 0 4 tcp 1040 ------- 1 1.0 4.0 34 93
- 0.37976 0 4 tcp 1040 ------- 1 1.0 4.0 34 93
r 0.38096 0 1 ack 40 ------- 1 4.0 1.0 26 109
+ 0.38096 1 0 tcp 1040 ------- 1 1.0 4.0 46 121
r 0.38144 0 4 tcp 1040 ------- 1 1.0 4.0 31 89
+ 0.38144 4 0 ack 40 ------- 1 4.0 1.0 31 122
- 0.38144 4 0 ack 40 ------- 1 4.0 1.0 31 122
+ 0.38144 2 0 cbr 210 ------- 2 2.0 5.0 27 123
- 0.38144 2 0 cbr 210 ------- 2 2.0 5.0 27 123
- 0.38224 1 0 tcp 1040 ------- 1 1.0 4.0 38 100
r 0.38296 0 5 cbr 210 ------- 2 2.0 5.0 24 110
r 0.38328 4 0 ack 40 ------- 1 4.0 1.0 29 117
+ 0.38328 0 1 ack 40 ------- 1 4.0 1.0 29 117
- 0.38328 0 1 ack 40 ------- 1 4.0 1.0 29 117
r 0.38392 1 0 tcp 1040 ------- 1 1.0 4.0 35 96
+ 0.38392 0 4 tcp 1040 ------- 1 1.0 4.0 35 96
- 0.38392 0 4 tcp 1040 ------- 1 1.0 4.0 35 96
r 0.38512 0 1 ack 40 ------- 1 4.0 1.0 27 112
+ 0.38512 1 0 tcp 1040 ------- 1 1.0 4.0 47 124
r 0.38556 2 0 cbr 210 ------- 2 2.0 5.0 26 118
+ 0.38556 0 5 cbr 210 ------- 2 2.0 5.0 26 118
- 0.38556 0 5 cbr 210 ------- 2 2.0 5.0 26 118
r 0.3856 0 4 tcp 1040 ------- 1 1.0 4.0 32 90
+ 0.3856 4 0 ack 40 ------- 1 4.0 1.0 32 125
- 0.3856 4 0 ack 40 ------- 1 4.0 1.0 32 125
- 0.3864 1 0 tcp 1040 ------- 1 1.0 4.0 39 103
r 0.38744 4 0 ack 40 ------- 1 4.0 1.0 30 120
+ 0.38744 0 1 ack 40 ------- 1 4.0 1.0 30 120
- 0.38744 0 1 ack 40 ------- 1 4.0 1.0 30 120
r 0.38808 1 0 tcp 1040 ------- 1 1.0 4.0 36 97
+ 0.38808 0 4 tcp 1040 ------- 1 1.0 4.0 36 97
- 0.38808 0 4 tcp 1040 ------- 1 1.0 4.0 36 97
+ 0.38816 2 0 cbr 210 ------- 2 2.0 5.0 28 126
- 0.38816 2 0 cbr 210 ------- 2 2.0 5.0 28 126
r 0.38928 0 1 ack 40 ------- 1 4.0 1.0 28 115
+ 0.38928 1 0 tcp 1040 ------- 1 1.0 4.0 48 127
r 0.38968 0 5 cbr 210 ------- 2 2.0 5.0 25 113
r 0.38976 0 4 tcp 1040 ------- 1 1.0 4.0 33 92
+ 0.38976 4 0 ack 40 ------- 1 4.0 1.0 33 128
- 0.38976 4 0 ack 40 ------- 1 4.0 1.0 33 128
- 0.39056 1 0 tcp 1040 ------- 1 1.0 4.0 40 106
r 0.3916 4 0 ack 40 ------- 1 4.0 1.0 31 122
+ 0.3916 0 1 ack 40 ------- 1 4.0 1.0 31 122
- 0.3916 0 1 ack 40 ------- 1 4.0 1.0 31 122
r 0.39224 1 0 tcp 1040 ------- 1 1.0 4.0 37 99
+ 0.39224 0 4 tcp 1040 ------- 1 1.0 4.0 37 99
- 0.39224 0 4 tcp 1040 ------- 1 1.0 4.0 37 99
r 0.39228 2 0 cbr 210 ------- 2 2.0 5.0 27 123
+ 0.39228 0 5 cbr 210 ------- 2 2.0 5.0 27 123
- 0.39228 0 5 cbr 210 ------- 2 2.0 5.0 27 123
r 0.39344 0 1 ack 40 ------- 1 4.0 1.0 29 117